         Total DFT energy =    -1061.825106004461
@ Step       Energy      Delta E   Gmax     Grms     Xrms     Xmax   Walltime
@ ---- ---------------- -------- -------- -------- -------- -------- --------
@    0   -1061.82510600  0.0D+00  0.10254  0.02569  0.00000  0.00000     24.1
         Total DFT energy =    -1061.893748419619
         Total DFT energy =    -1061.894336434819
@    1   -1061.89433643 -6.9D-02  0.06017  0.01119  0.28672  0.60750     53.3
         Total DFT energy =    -1061.906353019510
         Total DFT energy =  -1061.906353019510
@    2   -1061.90635302 -1.2D-02  0.03055  0.00617  0.11322  0.23062     73.3
         Total DFT energy =    -1061.912606751230
         Total DFT energy =    -1061.912883672753
@    3   -1061.91288367 -6.5D-03  0.00964  0.00274  0.10884  0.24037    102.6
         Total DFT energy =    -1061.915299499047
         Total DFT energy =    -1061.915796511825
@    4   -1061.91579651 -2.9D-03  0.00723  0.00183  0.08587  0.20231    130.5
         Total DFT energy =    -1061.916883791413
         Total DFT energy =    -1061.917165436568
@    5   -1061.91716544 -1.4D-03  0.00401  0.00119  0.07739  0.24625    158.5
         Total DFT energy =    -1061.917737924763
         Total DFT energy =    -1061.918032471772
@    6   -1061.91803247 -8.7D-04  0.00883  0.00170  0.07561  0.21106    186.6
         Total DFT energy =    -1061.918590413878
         Total DFT energy =    -1061.918783961574
@    7   -1061.91878396 -7.5D-04  0.00782  0.00138  0.09306  0.35261    215.8
         Total DFT energy =    -1061.919072443432
         Total DFT energy =    -1061.919103426050
@    8   -1061.91910343 -3.2D-04  0.00283  0.00075  0.04255  0.17175    244.2
         Total DFT energy =    -1061.919218897775
         Total DFT energy =    -1061.919227225553
@    9   -1061.91922723 -1.2D-04  0.00109  0.00036  0.02427  0.07625    274.6
         Total DFT energy =    -1061.919270933247
         Total DFT energy =    -1061.919278614688
@   10   -1061.91927861 -5.1D-05  0.00085  0.00024  0.01103  0.03454    299.8
         Total DFT energy =    -1061.919291020470
         Total DFT energy =    -1061.919291324192
@   11   -1061.91929132 -1.3D-05  0.00033  0.00012  0.00443  0.01096    322.2
         Total DFT energy =    -1061.919295834693
         Total DFT energy =  -1061.919295834693
@   12   -1061.91929583 -4.5D-06  0.00025  0.00007  0.00258  0.00662    339.9
         Total DFT energy =    -1061.919300232445
         Total DFT energy =  -1061.919300232445
@   13   -1061.91930023 -4.4D-06  0.00021  0.00006  0.00462  0.01490    355.4
         Total DFT energy =    -1061.919303090163
         Total DFT energy =  -1061.919303090163
@   14   -1061.91930309 -2.9D-06  0.00012  0.00005  0.00359  0.00977    373.2
         Total DFT energy =    -1061.919305258527
         Total DFT energy =  -1061.919305258527
@   15   -1061.91930526 -2.2D-06  0.00010  0.00003  0.00516  0.01720    389.7
         Total DFT energy =    -1061.919305952360
         Total DFT energy =  -1061.919305952360
@   16   -1061.91930595 -6.9D-07  0.00007  0.00002  0.00120  0.00435    405.5
         Total DFT energy =    -1061.919306487138
         Total DFT energy =  -1061.919306487138
@   17   -1061.91930649 -5.3D-07  0.00004  0.00001  0.00124  0.00491    421.0
         Total DFT energy =    -1061.919306550265
         Total DFT energy =  -1061.919306550265
@   18   -1061.91930655 -6.3D-08  0.00004  0.00001  0.00044  0.00136    435.7
@   18   -1061.91930655 -6.3D-08  0.00004  0.00001  0.00044  0.00136    435.7

 Output coordinates in angstroms (scale by  1.889725989 to convert to a.u.)

  No.       Tag          Charge          X              Y              Z
 ---- ---------------- ---------- -------------- -------------- --------------
    1 C                    6.0000     2.19175492    -1.81519505     0.06925522
    2 C                    6.0000     1.00650832    -1.18839950     0.13346964
    3 C                    6.0000    -1.37793098    -1.87893600     0.52489832
    4 C                    6.0000    -0.01219432     1.40994541     0.31080586
    5 H                    1.0000     2.33056927    -2.79120287     0.53957564
    6 H                    1.0000     3.04035793    -1.36090105    -0.44098814
    7 H                    1.0000     0.22248188    -2.10557984     1.78453947
    8 H                    1.0000    -1.97311607    -2.27524692     1.36151730
    9 H                    1.0000    -1.29135150    -1.33038318    -1.30160563
   10 H                    1.0000    -0.22345285     0.93161117     1.27856097
   11 N                    7.0000    -0.05931817    -1.62062911     0.93810059
   12 N                    7.0000    -1.94250527    -1.70326934    -0.59922676
   13 S                   16.0000     0.78561176     0.33224529    -0.82596854
   14 S                   16.0000    -0.41143903     2.95520180    -0.03101609

         Total DFT energy =    -1061.919302057622

                       DFT Final Molecular Orbital Analysis
                       ------------------------------------

 Vector    1  Occ=2.000000D+00  E=-8.893494D+01

 Vector   79  Occ=0.000000D+00  E= 6.561632D-01

 Vector   80  Occ=0.000000D+00  E= 6.700564D-01

 Vector   81  Occ=0.000000D+00  E= 7.002143D-01

 Vector   82  Occ=0.000000D+00  E= 7.148030D-01

 Vector   83  Occ=0.000000D+00  E= 7.216411D-01

 Vector   84  Occ=0.000000D+00  E= 7.344038D-01

 Vector   85  Occ=0.000000D+00  E= 7.576213D-01

 Vector   86  Occ=0.000000D+00  E= 7.768783D-01

 Vector   87  Occ=0.000000D+00  E= 8.031325D-01

 Vector   88  Occ=0.000000D+00  E= 8.197055D-01

 Vector   89  Occ=0.000000D+00  E= 8.442736D-01

 Vector   90  Occ=0.000000D+00  E= 8.706842D-01

 Vector   91  Occ=0.000000D+00  E= 8.956994D-01

 Vector   92  Occ=0.000000D+00  E= 9.072798D-01

 Vector   93  Occ=0.000000D+00  E= 9.245345D-01

 Vector   94  Occ=0.000000D+00  E= 9.466683D-01

 Vector   95  Occ=0.000000D+00  E= 9.939478D-01

 Vector   96  Occ=0.000000D+00  E= 1.002353D+00

 Vector   97  Occ=0.000000D+00  E= 1.028267D+00

 Vector   98  Occ=0.000000D+00  E= 1.061761D+00

 Vector   99  Occ=0.000000D+00  E= 1.078280D+00

 Vector  100  Occ=0.000000D+00  E= 1.088750D+00

 Vector  101  Occ=0.000000D+00  E= 1.104259D+00

 Vector  102  Occ=0.000000D+00  E= 1.115802D+00

 Vector  103  Occ=0.000000D+00  E= 1.158249D+00

 Vector  104  Occ=0.000000D+00  E= 1.171543D+00

 Vector  105  Occ=0.000000D+00  E= 1.215671D+00

 Vector  106  Occ=0.000000D+00  E= 1.300690D+00

 Vector  107  Occ=0.000000D+00  E= 1.351701D+00

 Vector  108  Occ=0.000000D+00  E= 1.381681D+00

 Vector  109  Occ=0.000000D+00  E= 1.409151D+00

 Vector  110  Occ=0.000000D+00  E= 1.415408D+00

 Vector  111  Occ=0.000000D+00  E= 1.425541D+00

 Vector  112  Occ=0.000000D+00  E= 1.460464D+00

 Vector  113  Occ=0.000000D+00  E= 1.472146D+00

 Vector  114  Occ=0.000000D+00  E= 1.510253D+00

 Vector  115  Occ=0.000000D+00  E= 1.526721D+00

 Vector  116  Occ=0.000000D+00  E= 1.549952D+00

 Vector  117  Occ=0.000000D+00  E= 1.581269D+00

 Vector  118  Occ=0.000000D+00  E= 1.624519D+00

 Vector  119  Occ=0.000000D+00  E= 1.627926D+00

 Vector  120  Occ=0.000000D+00  E= 1.644864D+00

 Vector  121  Occ=0.000000D+00  E= 1.692087D+00

 Vector  122  Occ=0.000000D+00  E= 1.721227D+00

 Vector  123  Occ=0.000000D+00  E= 1.735857D+00

 Vector  124  Occ=0.000000D+00  E= 1.754917D+00

 Vector  125  Occ=0.000000D+00  E= 1.791522D+00

 Vector  126  Occ=0.000000D+00  E= 1.806404D+00

 Vector  127  Occ=0.000000D+00  E= 1.841638D+00

 Vector  128  Occ=0.000000D+00  E= 1.893978D+00

 Vector  129  Occ=0.000000D+00  E= 1.908577D+00

 Vector  130  Occ=0.000000D+00  E= 1.948594D+00

 Vector  131  Occ=0.000000D+00  E= 2.001854D+00

 Vector  132  Occ=0.000000D+00  E= 2.019400D+00

 Vector  133  Occ=0.000000D+00  E= 2.070836D+00

 Vector  134  Occ=0.000000D+00  E= 2.106901D+00

 Vector  135  Occ=0.000000D+00  E= 2.138456D+00

 Vector  136  Occ=0.000000D+00  E= 2.190153D+00

 Vector  137  Occ=0.000000D+00  E= 2.204292D+00

 Vector  138  Occ=0.000000D+00  E= 2.250542D+00

 Vector  139  Occ=0.000000D+00  E= 2.283696D+00

 Vector  140  Occ=0.000000D+00  E= 2.300180D+00

 Vector  141  Occ=0.000000D+00  E= 2.358884D+00

 Vector  142  Occ=0.000000D+00  E= 2.391375D+00

 Vector  143  Occ=0.000000D+00  E= 2.470604D+00

 Vector  144  Occ=0.000000D+00  E= 2.496352D+00

 Vector  145  Occ=0.000000D+00  E= 2.530703D+00

 Vector  146  Occ=0.000000D+00  E= 2.539100D+00

 Vector  147  Occ=0.000000D+00  E= 2.570645D+00

 Vector  148  Occ=0.000000D+00  E= 2.625706D+00

 Vector  149  Occ=0.000000D+00  E= 2.658544D+00

 Vector  150  Occ=0.000000D+00  E= 2.751931D+00

 Vector  151  Occ=0.000000D+00  E= 2.833144D+00

 Vector  152  Occ=0.000000D+00  E= 2.866903D+00

 Vector  153  Occ=0.000000D+00  E= 2.984098D+00

 Vector  154  Occ=0.000000D+00  E= 3.072563D+00

 Vector  155  Occ=0.000000D+00  E= 3.172554D+00

 Vector  156  Occ=0.000000D+00  E= 3.295995D+00

 Vector  157  Occ=0.000000D+00  E= 4.189343D+00

 Vector  158  Occ=0.000000D+00  E= 4.371321D+00

     Multipole analysis of the density
     ---------------------------------

     L   x y z        total         alpha         beta         nuclear
     -   - - -        -----         -----         ----         -------
     0   0 0 0     -0.000000    -38.000000    -38.000000     76.000000

     1   1 0 0      1.073710     -4.119729     -4.119729      9.313167
     1   0 1 0     -1.222564     -0.199937     -0.199937     -0.822691
     1   0 0 1      0.969637      2.268213      2.268213     -3.566789

     2   2 0 0    -48.900400   -213.093610   -213.093610    377.286820
     2   1 1 0     -3.328834     20.071250     20.071250    -43.471334
     2   1 0 1     -1.740361      9.919275      9.919275    -21.578911
     2   0 2 0    -47.998622   -494.370914   -494.370914    940.743207
     2   0 1 1     -4.154239     32.182961     32.182961    -68.520160

 Zero-Point correction to Energy  =   62.050 kcal/mol  (  0.098882 au)
 Thermal correction to Energy     =   67.918 kcal/mol  (  0.108234 au)
 Thermal correction to Enthalpy   =   68.510 kcal/mol  (  0.109178 au)
 Total Entropy                    =   97.526 cal/mol-K
   - Translational                =   40.828 cal/mol-K (mol. weight = 145.9972)
   - Rotational                   =   29.818 cal/mol-K (symmetry #  =        1)
   - Vibrational                  =   26.881 cal/mol-K
   - Translational                  =    2.979 cal/mol-K
   - Rotational                     =    2.979 cal/mol-K
   - Vibrational                    =   25.935 cal/mol-K
 P.Frequency       -0.00       -0.00       -0.00        0.00        0.00        0.00
 P.Frequency       38.28       67.61      118.21      142.33      180.84      210.15
 P.Frequency      291.26      365.53      402.28      474.82      538.94      604.31
 P.Frequency      695.13      753.31      784.52      814.66      828.86      879.08
 P.Frequency      921.97     1063.71     1072.83     1101.17     1201.83     1255.47
 P.Frequency     1271.82     1391.97     1429.82     1476.48     1676.70     1734.02
 P.Frequency     3100.41     3102.76     3153.69     3262.85     3439.61     3577.75

 Normal Eigenvalue ||           Projected Infra Red Intensities
  Mode   [cm**-1]  || [atomic units] [(debye/angs)**2] [(KM/mol)] [arbitrary]
 ------ ---------- || -------------- ----------------- ---------- -----------
    1       -0.000 ||    0.000277           0.006         0.270       0.082
    2       -0.000 ||    0.000306           0.007         0.299       0.090
    3       -0.000 ||    0.001163           0.027         1.134       0.343
    4        0.000 ||    0.001159           0.027         1.130       0.342
    5        0.000 ||    0.000807           0.019         0.787       0.238
    6        0.000 ||    0.000798           0.018         0.778       0.235
    7       38.279 ||    0.000742           0.017         0.724       0.219
    8       67.613 ||    0.000191           0.004         0.186       0.056
    9      118.213 ||    0.000919           0.021         0.896       0.271
   10      142.327 ||    0.002053           0.047         2.001       0.605
   11      180.844 ||    0.004436           0.102         4.325       1.307
   12      210.151 ||    0.001251           0.029         1.219       0.369
   13      291.261 ||    0.001384           0.032         1.349       0.408
   14      365.531 ||    0.007485           0.173         7.297       2.206
   15      402.285 ||    0.008718           0.201         8.499       2.570
   16      474.822 ||    0.071777           1.656        69.972      21.155
   17      538.938 ||    0.014967           0.345        14.591       4.411
   18      604.308 ||    0.013222           0.305        12.889       3.897
   19      695.132 ||    0.009787           0.226         9.541       2.885
   20      753.308 ||    0.082526           1.904        80.450      24.323
   21      784.516 ||    0.020260           0.467        19.751       5.972
   22      814.657 ||    0.026737           0.617        26.065       7.880
   23      828.861 ||    0.033708           0.778        32.860       9.935
   24      879.083 ||    0.031345           0.723        30.557       9.239
   25      921.966 ||    0.003481           0.080         3.393       1.026
   26     1063.712 ||    0.178875           4.127       174.376      52.721
   27     1072.827 ||    0.036952           0.853        36.022      10.891
   28     1101.169 ||    0.024979           0.576        24.351       7.362
   29     1201.835 ||    0.066267           1.529        64.600      19.531
   30     1255.469 ||    0.157328           3.630       153.371      46.370
   31     1271.821 ||    0.159486           3.679       155.475      47.007
   32     1391.970 ||    0.007531           0.174         7.342       2.220
   33     1429.819 ||    0.006939           0.160         6.765       2.045
   34     1476.477 ||    0.092962           2.145        90.624      27.399
   35     1676.699 ||    0.141550           3.266       137.990      41.720
   36     1734.024 ||    0.141852           3.273       138.284      41.809
   37     3100.407 ||    0.001671           0.039         1.629       0.493
   38     3102.760 ||    0.035533           0.820        34.639      10.473
   39     3153.694 ||    0.002172           0.050         2.118       0.640
   40     3262.847 ||    0.003173           0.073         3.093       0.935
   41     3439.613 ||    0.002006           0.046         1.955       0.591
   42     3577.748 ||    0.026220           0.605        25.561       7.728
 ----------------------------------------------------------------------------

 Total times  cpu:      855.9s     wall:      855.9s
