         Total DFT energy =    -1205.513113778087
@ Step       Energy      Delta E   Gmax     Grms     Xrms     Xmax   Walltime
@ ---- ---------------- -------- -------- -------- -------- -------- --------
@    0   -1205.51311378  0.0D+00  0.03395  0.00952  0.00000  0.00000     35.9
         Total DFT energy =    -1205.523567704885
         Total DFT energy =    -1205.523652399893
@    1   -1205.52365240 -1.1D-02  0.00589  0.00227  0.13610  0.33405     74.7
         Total DFT energy =    -1205.525742080591
         Total DFT energy =    -1205.525827615355
@    2   -1205.52582762 -2.2D-03  0.00497  0.00130  0.05443  0.14745    113.2
         Total DFT energy =    -1205.526253448459
         Total DFT energy =    -1205.526350334141
@    3   -1205.52635033 -5.2D-04  0.00336  0.00078  0.02057  0.05201    150.7
         Total DFT energy =    -1205.526513290318
         Total DFT energy =    -1205.526560433285
@    4   -1205.52656043 -2.1D-04  0.00357  0.00073  0.01850  0.06216    188.3
         Total DFT energy =    -1205.526655044785
         Total DFT energy =    -1205.526677968314
@    5   -1205.52667797 -1.2D-04  0.00202  0.00047  0.01882  0.06544    225.6
         Total DFT energy =    -1205.526744350083
         Total DFT energy =    -1205.526786837672
@    6   -1205.52678684 -1.1D-04  0.00153  0.00042  0.02114  0.05948    263.4
         Total DFT energy =    -1205.526846539193
         Total DFT energy =    -1205.526863774752
@    7   -1205.52686377 -7.7D-05  0.00204  0.00047  0.01871  0.04031    308.9
         Total DFT energy =    -1205.526905022838
         Total DFT energy =    -1205.526912957874
@    8   -1205.52691296 -4.9D-05  0.00128  0.00027  0.01145  0.02894    345.3
         Total DFT energy =    -1205.526929919497
         Total DFT energy =    -1205.526934457826
@    9   -1205.52693446 -2.1D-05  0.00071  0.00017  0.01104  0.03139    379.9
         Total DFT energy =    -1205.526941875653
         Total DFT energy =    -1205.526943381014
@   10   -1205.52694338 -8.9D-06  0.00031  0.00008  0.00591  0.02191    413.4
         Total DFT energy =    -1205.526945185868
         Total DFT energy =  -1205.526945185868
@   11   -1205.52694519 -1.8D-06  0.00018  0.00004  0.00134  0.00501    440.5
         Total DFT energy =    -1205.526946021108
         Total DFT energy =  -1205.526946021108
@   12   -1205.52694602 -8.4D-07  0.00009  0.00002  0.00088  0.00224    469.8
         Total DFT energy =    -1205.526946377798
         Total DFT energy =  -1205.526946377798
@   13   -1205.52694638 -3.6D-07  0.00008  0.00002  0.00035  0.00095    504.9
@   13   -1205.52694638 -3.6D-07  0.00008  0.00002  0.00035  0.00095    504.9

 Output coordinates in angstroms (scale by  1.889725989 to convert to a.u.)

  No.       Tag          Charge          X              Y              Z
 ---- ---------------- ---------- -------------- -------------- --------------
    1 C                    6.0000    -0.05401193    -0.20291074     1.04802802
    2 C                    6.0000    -0.80340569    -1.07441949     0.04210558
    3 C                    6.0000     0.61575277     1.87137286    -0.15836280
    4 H                    1.0000     2.64615689     0.47300911     1.18021740
    5 H                    1.0000     0.47192709    -0.84391753     1.76786822
    6 H                    1.0000    -0.81207703     0.40272065     1.56785883
    7 H                    1.0000    -1.31099616    -0.48145202    -0.72866705
    8 H                    1.0000     1.52460072     2.33490936    -0.56687448
    9 N                    7.0000     0.90828774     0.70659491     0.45364459
   10 O                    8.0000     2.21874969     0.23348074     0.33641857
   11 F                    9.0000    -1.73624670    -1.79371672     0.74512981
   12 S                   16.0000    -0.88669310     2.55711333    -0.28848450
   13 Cl                  17.0000     0.29404230    -2.22161697    -0.81885506

         Total DFT energy =    -1205.526937319031

                       DFT Final Molecular Orbital Analysis
                       ------------------------------------

 Vector    1  Occ=2.000000D+00  E=-1.015559D+02

 Vector   74  Occ=0.000000D+00  E= 6.489459D-01

 Vector   75  Occ=0.000000D+00  E= 6.552340D-01

 Vector   76  Occ=0.000000D+00  E= 6.731865D-01

 Vector   77  Occ=0.000000D+00  E= 6.788426D-01

 Vector   78  Occ=0.000000D+00  E= 7.223115D-01

 Vector   79  Occ=0.000000D+00  E= 7.413304D-01

 Vector   80  Occ=0.000000D+00  E= 7.570348D-01

 Vector   81  Occ=0.000000D+00  E= 7.875067D-01

 Vector   82  Occ=0.000000D+00  E= 7.934533D-01

 Vector   83  Occ=0.000000D+00  E= 8.313488D-01

 Vector   84  Occ=0.000000D+00  E= 8.657845D-01

 Vector   85  Occ=0.000000D+00  E= 8.905908D-01

 Vector   86  Occ=0.000000D+00  E= 8.999863D-01

 Vector   87  Occ=0.000000D+00  E= 9.445664D-01

 Vector   88  Occ=0.000000D+00  E= 9.717239D-01

 Vector   89  Occ=0.000000D+00  E= 9.785778D-01

 Vector   90  Occ=0.000000D+00  E= 9.856135D-01

 Vector   91  Occ=0.000000D+00  E= 1.012949D+00

 Vector   92  Occ=0.000000D+00  E= 1.036203D+00

 Vector   93  Occ=0.000000D+00  E= 1.071950D+00

 Vector   94  Occ=0.000000D+00  E= 1.135430D+00

 Vector   95  Occ=0.000000D+00  E= 1.192240D+00

 Vector   96  Occ=0.000000D+00  E= 1.209294D+00

 Vector   97  Occ=0.000000D+00  E= 1.218394D+00

 Vector   98  Occ=0.000000D+00  E= 1.253326D+00

 Vector   99  Occ=0.000000D+00  E= 1.283049D+00

 Vector  100  Occ=0.000000D+00  E= 1.299730D+00

 Vector  101  Occ=0.000000D+00  E= 1.322408D+00

 Vector  102  Occ=0.000000D+00  E= 1.345510D+00

 Vector  103  Occ=0.000000D+00  E= 1.385093D+00

 Vector  104  Occ=0.000000D+00  E= 1.430844D+00

 Vector  105  Occ=0.000000D+00  E= 1.465993D+00

 Vector  106  Occ=0.000000D+00  E= 1.513355D+00

 Vector  107  Occ=0.000000D+00  E= 1.524415D+00

 Vector  108  Occ=0.000000D+00  E= 1.578204D+00

 Vector  109  Occ=0.000000D+00  E= 1.615770D+00

 Vector  110  Occ=0.000000D+00  E= 1.619361D+00

 Vector  111  Occ=0.000000D+00  E= 1.633144D+00

 Vector  112  Occ=0.000000D+00  E= 1.658192D+00

 Vector  113  Occ=0.000000D+00  E= 1.672803D+00

 Vector  114  Occ=0.000000D+00  E= 1.711390D+00

 Vector  115  Occ=0.000000D+00  E= 1.736094D+00

 Vector  116  Occ=0.000000D+00  E= 1.752095D+00

 Vector  117  Occ=0.000000D+00  E= 1.802651D+00

 Vector  118  Occ=0.000000D+00  E= 1.839362D+00

 Vector  119  Occ=0.000000D+00  E= 1.863323D+00

 Vector  120  Occ=0.000000D+00  E= 1.929931D+00

 Vector  121  Occ=0.000000D+00  E= 1.950706D+00

 Vector  122  Occ=0.000000D+00  E= 1.975508D+00

 Vector  123  Occ=0.000000D+00  E= 2.027325D+00

 Vector  124  Occ=0.000000D+00  E= 2.052777D+00

 Vector  125  Occ=0.000000D+00  E= 2.064906D+00

 Vector  126  Occ=0.000000D+00  E= 2.100182D+00

 Vector  127  Occ=0.000000D+00  E= 2.230638D+00

 Vector  128  Occ=0.000000D+00  E= 2.284951D+00

 Vector  129  Occ=0.000000D+00  E= 2.325780D+00

 Vector  130  Occ=0.000000D+00  E= 2.347897D+00

 Vector  131  Occ=0.000000D+00  E= 2.395194D+00

 Vector  132  Occ=0.000000D+00  E= 2.420808D+00

 Vector  133  Occ=0.000000D+00  E= 2.452125D+00

 Vector  134  Occ=0.000000D+00  E= 2.491913D+00

 Vector  135  Occ=0.000000D+00  E= 2.518993D+00

 Vector  136  Occ=0.000000D+00  E= 2.698410D+00

 Vector  137  Occ=0.000000D+00  E= 2.746322D+00

 Vector  138  Occ=0.000000D+00  E= 2.846621D+00

 Vector  139  Occ=0.000000D+00  E= 2.867444D+00

 Vector  140  Occ=0.000000D+00  E= 3.017848D+00

 Vector  141  Occ=0.000000D+00  E= 3.040464D+00

 Vector  142  Occ=0.000000D+00  E= 3.103342D+00

 Vector  143  Occ=0.000000D+00  E= 3.270871D+00

 Vector  144  Occ=0.000000D+00  E= 3.385815D+00

 Vector  145  Occ=0.000000D+00  E= 3.573731D+00

 Vector  146  Occ=0.000000D+00  E= 3.595749D+00

 Vector  147  Occ=0.000000D+00  E= 3.602878D+00

 Vector  148  Occ=0.000000D+00  E= 3.769205D+00

 Vector  149  Occ=0.000000D+00  E= 3.814926D+00

 Vector  150  Occ=0.000000D+00  E= 4.132275D+00

 Vector  151  Occ=0.000000D+00  E= 4.262567D+00

 Vector  152  Occ=0.000000D+00  E= 5.590207D+00

 Vector  153  Occ=0.000000D+00  E= 7.745434D+00

     Multipole analysis of the density
     ---------------------------------

     L   x y z        total         alpha         beta         nuclear
     -   - - -        -----         -----         ----         -------
     0   0 0 0     -0.000000    -40.000000    -40.000000     80.000000

     1   1 0 0      1.104542      0.209245      0.209245      0.686052
     1   0 1 0     -0.030702      0.677791      0.677791     -1.386284
     1   0 0 1      0.962417     -2.209543     -2.209543      5.381503

     2   2 0 0    -42.030689   -207.479781   -207.479781    372.928874
     2   1 1 0      3.268046     -9.362497     -9.362497     21.993040
     2   1 0 1      3.653420      3.863748      3.863748     -4.074076
     2   0 2 0    -52.629015   -484.091389   -484.091389    915.553764
     2   0 1 1      0.889523     -9.135957     -9.135957     19.161438

 Zero-Point correction to Energy  =   54.476 kcal/mol  (  0.086813 au)
 Thermal correction to Energy     =   60.170 kcal/mol  (  0.095888 au)
 Thermal correction to Enthalpy   =   60.763 kcal/mol  (  0.096831 au)
 Total Entropy                    =   98.357 cal/mol-K
   - Translational                =   41.044 cal/mol-K (mol. weight = 156.9764)
   - Rotational                   =   29.961 cal/mol-K (symmetry #  =        1)
   - Vibrational                  =   27.352 cal/mol-K
   - Translational                  =    2.979 cal/mol-K
   - Rotational                     =    2.979 cal/mol-K
   - Vibrational                    =   24.351 cal/mol-K
 P.Frequency        0.00        0.00        0.00        0.00        0.00        0.00
 P.Frequency       16.79       56.74      107.96      181.37      226.07      270.28
 P.Frequency      339.66      350.86      397.55      429.46      501.69      512.62
 P.Frequency      672.91      859.66      902.76      963.91     1026.16     1067.07
 P.Frequency     1086.18     1131.92     1229.16     1311.62     1321.05     1364.04
 P.Frequency     1379.11     1396.71     1411.67     1497.67     3067.04     3115.59
 P.Frequency     3128.96     3142.61     3657.84

 Normal Eigenvalue ||           Projected Infra Red Intensities
  Mode   [cm**-1]  || [atomic units] [(debye/angs)**2] [(KM/mol)] [arbitrary]
 ------ ---------- || -------------- ----------------- ---------- -----------
    1        0.000 ||    0.000025           0.001         0.024       0.009
    2        0.000 ||    0.000450           0.010         0.439       0.166
    3        0.000 ||    0.000211           0.005         0.206       0.078
    4        0.000 ||    0.000189           0.004         0.184       0.070
    5        0.000 ||    0.000407           0.009         0.397       0.151
    6        0.000 ||    0.001951           0.045         1.902       0.721
    7       16.789 ||    0.002156           0.050         2.102       0.797
    8       56.739 ||    0.003979           0.092         3.878       1.471
    9      107.959 ||    0.001420           0.033         1.384       0.525
   10      181.369 ||    0.008352           0.193         8.142       3.088
   11      226.068 ||    0.002791           0.064         2.721       1.032
   12      270.283 ||    0.006935           0.160         6.761       2.564
   13      339.664 ||    0.000114           0.003         0.111       0.042
   14      350.858 ||    0.110470           2.549       107.692      40.840
   15      397.550 ||    0.012443           0.287        12.130       4.600
   16      429.456 ||    0.011284           0.260        11.000       4.172
   17      501.689 ||    0.005972           0.138         5.822       2.208
   18      512.621 ||    0.002717           0.063         2.648       1.004
   19      672.909 ||    0.064855           1.496        63.224      23.977
   20      859.659 ||    0.013746           0.317        13.401       5.082
   21      902.755 ||    0.016719           0.386        16.298       6.181
   22      963.913 ||    0.013442           0.310        13.104       4.969
   23     1026.156 ||    0.137089           3.163       133.642      50.681
   24     1067.068 ||    0.070685           1.631        68.907      26.132
   25     1086.180 ||    0.079700           1.839        77.695      29.465
   26     1131.916 ||    0.010066           0.232         9.813       3.721
   27     1229.163 ||    0.078954           1.822        76.969      29.189
   28     1311.623 ||    0.012202           0.282        11.895       4.511
   29     1321.048 ||    0.007848           0.181         7.651       2.902
   30     1364.041 ||    0.017801           0.411        17.353       6.581
   31     1379.108 ||    0.028477           0.657        27.761      10.528
   32     1396.706 ||    0.031403           0.725        30.614      11.610
   33     1411.675 ||    0.013151           0.303        12.820       4.862
   34     1497.671 ||    0.226774           5.232       221.070      83.837
   35     3067.037 ||    0.008179           0.189         7.973       3.024
   36     3115.587 ||    0.007546           0.174         7.356       2.790
   37     3128.958 ||    0.000460           0.011         0.448       0.170
   38     3142.613 ||    0.003719           0.086         3.625       1.375
   39     3657.844 ||    0.040238           0.928        39.226      14.876
 ----------------------------------------------------------------------------

 Total times  cpu:      962.7s     wall:      962.7s
