         Total DFT energy =    -1061.895853795805
@ Step       Energy      Delta E   Gmax     Grms     Xrms     Xmax   Walltime
@ ---- ---------------- -------- -------- -------- -------- -------- --------
@    0   -1061.89585380  0.0D+00  0.03415  0.00903  0.00000  0.00000     23.4
         Total DFT energy =    -1061.906342720533
         Total DFT energy =  -1061.906342720533
@    1   -1061.90634272 -1.0D-02  0.00472  0.00163  0.05783  0.13306     42.9
         Total DFT energy =    -1061.907416481314
         Total DFT energy =    -1061.907596829020
@    2   -1061.90759683 -1.3D-03  0.00420  0.00109  0.05800  0.13555     71.0
         Total DFT energy =    -1061.907925201637
         Total DFT energy =    -1061.907961571751
@    3   -1061.90796157 -3.6D-04  0.00187  0.00055  0.02569  0.08160     97.1
         Total DFT energy =    -1061.908105864640
         Total DFT energy =    -1061.908162899495
@    4   -1061.90816290 -2.0D-04  0.00379  0.00069  0.02842  0.10460    123.3
         Total DFT energy =    -1061.908255016818
         Total DFT energy =    -1061.908268176028
@    5   -1061.90826818 -1.1D-04  0.00286  0.00043  0.02272  0.07200    149.5
         Total DFT energy =    -1061.908307438453
         Total DFT energy =    -1061.908318187302
@    6   -1061.90831819 -5.0D-05  0.00176  0.00030  0.01684  0.04987    174.7
         Total DFT energy =    -1061.908340767191
         Total DFT energy =    -1061.908352830734
@    7   -1061.90835283 -3.5D-05  0.00119  0.00025  0.02061  0.06418    200.6
         Total DFT energy =    -1061.908373371165
         Total DFT energy =    -1061.908390582571
@    8   -1061.90839058 -3.8D-05  0.00119  0.00026  0.03072  0.08251    225.8
         Total DFT energy =    -1061.908417815656
         Total DFT energy =    -1061.908441434554
@    9   -1061.90844143 -5.1D-05  0.00162  0.00030  0.05763  0.14541    251.8
         Total DFT energy =    -1061.908467332610
         Total DFT energy =    -1061.908475786470
@   10   -1061.90847579 -3.4D-05  0.00128  0.00024  0.04202  0.10966    277.8
         Total DFT energy =    -1061.908487948833
         Total DFT energy =    -1061.908490897290
@   11   -1061.90849090 -1.5D-05  0.00069  0.00015  0.01558  0.04260    303.6
         Total DFT energy =    -1061.908495919464
         Total DFT energy =    -1061.908497917797
@   12   -1061.90849792 -7.0D-06  0.00035  0.00008  0.01726  0.05033    328.6
         Total DFT energy =    -1061.908499579982
         Total DFT energy =  -1061.908499579982
@   13   -1061.90849958 -1.7D-06  0.00013  0.00003  0.00254  0.00627    344.5
         Total DFT energy =    -1061.908500658804
         Total DFT energy =  -1061.908500658804
@   14   -1061.90850066 -1.1D-06  0.00007  0.00002  0.00245  0.00837    360.9
         Total DFT energy =    -1061.908500883239
         Total DFT energy =  -1061.908500883239
@   15   -1061.90850088 -2.2D-07  0.00005  0.00001  0.00263  0.00593    376.9
         Total DFT energy =    -1061.908500682777
         Total DFT energy =  -1061.908500682777
@   16   -1061.90850068  2.0D-07  0.00008  0.00002  0.00189  0.00490    392.4
         Total DFT energy =    -1061.908500804352
         Total DFT energy =  -1061.908500804352
@   17   -1061.90850080 -1.2D-07  0.00003  0.00001  0.00107  0.00280    408.1
         Total DFT energy =    -1061.908501239083
         Total DFT energy =  -1061.908501239083
@   18   -1061.90850124 -4.3D-07  0.00006  0.00001  0.00051  0.00148    422.8
@   18   -1061.90850124 -4.3D-07  0.00006  0.00001  0.00051  0.00148    422.8

 Output coordinates in angstroms (scale by  1.889725989 to convert to a.u.)

  No.       Tag          Charge          X              Y              Z
 ---- ---------------- ---------- -------------- -------------- --------------
    1 C                    6.0000    -0.43475287     3.67696469     0.01338431
    2 C                    6.0000     0.43925259    -0.06432395     0.52273552
    3 C                    6.0000     1.86142164    -0.25685743    -0.08914765
    4 C                    6.0000     0.17705643    -1.53027193     0.10838299
    5 H                    1.0000     0.03778132     4.57742658     0.42602065
    6 H                    1.0000    -1.29348161     3.81906190    -0.66416545
    7 H                    1.0000     0.42538546     0.10046767     1.60817883
    8 H                    1.0000     2.06807754     0.35373212    -0.98012596
    9 H                    1.0000     2.69300773    -0.18388481     0.62890209
   10 H                    1.0000     1.89734290    -2.43075910    -0.80960944
   11 N                    7.0000     0.05663411     2.55164963     0.36159438
   12 N                    7.0000     1.43660777    -1.63134264    -0.38306358
   13 S                   16.0000    -0.68884505     1.11717365    -0.27760785
   14 S                   16.0000    -1.08721879    -2.57440026     0.20024710

         Total DFT energy =    -1061.908508345324

                       DFT Final Molecular Orbital Analysis
                       ------------------------------------

 Vector    1  Occ=2.000000D+00  E=-8.892072D+01

 Vector   79  Occ=0.000000D+00  E= 6.600915D-01

 Vector   80  Occ=0.000000D+00  E= 6.734436D-01

 Vector   81  Occ=0.000000D+00  E= 6.896533D-01

 Vector   82  Occ=0.000000D+00  E= 6.978769D-01

 Vector   83  Occ=0.000000D+00  E= 7.161090D-01

 Vector   84  Occ=0.000000D+00  E= 7.563258D-01

 Vector   85  Occ=0.000000D+00  E= 7.666020D-01

 Vector   86  Occ=0.000000D+00  E= 8.019046D-01

 Vector   87  Occ=0.000000D+00  E= 8.032633D-01

 Vector   88  Occ=0.000000D+00  E= 8.430819D-01

 Vector   89  Occ=0.000000D+00  E= 8.564547D-01

 Vector   90  Occ=0.000000D+00  E= 8.665373D-01

 Vector   91  Occ=0.000000D+00  E= 8.685805D-01

 Vector   92  Occ=0.000000D+00  E= 9.106211D-01

 Vector   93  Occ=0.000000D+00  E= 9.430653D-01

 Vector   94  Occ=0.000000D+00  E= 9.573073D-01

 Vector   95  Occ=0.000000D+00  E= 9.825600D-01

 Vector   96  Occ=0.000000D+00  E= 1.005736D+00

 Vector   97  Occ=0.000000D+00  E= 1.018417D+00

 Vector   98  Occ=0.000000D+00  E= 1.051322D+00

 Vector   99  Occ=0.000000D+00  E= 1.072794D+00

 Vector  100  Occ=0.000000D+00  E= 1.145120D+00

 Vector  101  Occ=0.000000D+00  E= 1.151139D+00

 Vector  102  Occ=0.000000D+00  E= 1.234223D+00

 Vector  103  Occ=0.000000D+00  E= 1.241600D+00

 Vector  104  Occ=0.000000D+00  E= 1.285728D+00

 Vector  105  Occ=0.000000D+00  E= 1.312765D+00

 Vector  106  Occ=0.000000D+00  E= 1.354395D+00

 Vector  107  Occ=0.000000D+00  E= 1.389421D+00

 Vector  108  Occ=0.000000D+00  E= 1.407082D+00

 Vector  109  Occ=0.000000D+00  E= 1.434877D+00

 Vector  110  Occ=0.000000D+00  E= 1.444951D+00

 Vector  111  Occ=0.000000D+00  E= 1.474519D+00

 Vector  112  Occ=0.000000D+00  E= 1.489730D+00

 Vector  113  Occ=0.000000D+00  E= 1.529409D+00

 Vector  114  Occ=0.000000D+00  E= 1.561929D+00

 Vector  115  Occ=0.000000D+00  E= 1.607787D+00

 Vector  116  Occ=0.000000D+00  E= 1.613627D+00

 Vector  117  Occ=0.000000D+00  E= 1.638632D+00

 Vector  118  Occ=0.000000D+00  E= 1.658082D+00

 Vector  119  Occ=0.000000D+00  E= 1.665100D+00

 Vector  120  Occ=0.000000D+00  E= 1.681211D+00

 Vector  121  Occ=0.000000D+00  E= 1.695470D+00

 Vector  122  Occ=0.000000D+00  E= 1.715588D+00

 Vector  123  Occ=0.000000D+00  E= 1.740678D+00

 Vector  124  Occ=0.000000D+00  E= 1.753152D+00

 Vector  125  Occ=0.000000D+00  E= 1.802643D+00

 Vector  126  Occ=0.000000D+00  E= 1.830323D+00

 Vector  127  Occ=0.000000D+00  E= 1.871514D+00

 Vector  128  Occ=0.000000D+00  E= 1.926669D+00

 Vector  129  Occ=0.000000D+00  E= 1.969751D+00

 Vector  130  Occ=0.000000D+00  E= 1.976314D+00

 Vector  131  Occ=0.000000D+00  E= 2.025118D+00

 Vector  132  Occ=0.000000D+00  E= 2.040862D+00

 Vector  133  Occ=0.000000D+00  E= 2.066748D+00

 Vector  134  Occ=0.000000D+00  E= 2.093259D+00

 Vector  135  Occ=0.000000D+00  E= 2.209587D+00

 Vector  136  Occ=0.000000D+00  E= 2.227289D+00

 Vector  137  Occ=0.000000D+00  E= 2.238323D+00

 Vector  138  Occ=0.000000D+00  E= 2.252797D+00

 Vector  139  Occ=0.000000D+00  E= 2.269360D+00

 Vector  140  Occ=0.000000D+00  E= 2.278863D+00

 Vector  141  Occ=0.000000D+00  E= 2.312523D+00

 Vector  142  Occ=0.000000D+00  E= 2.349075D+00

 Vector  143  Occ=0.000000D+00  E= 2.410110D+00

 Vector  144  Occ=0.000000D+00  E= 2.445474D+00

 Vector  145  Occ=0.000000D+00  E= 2.479235D+00

 Vector  146  Occ=0.000000D+00  E= 2.505057D+00

 Vector  147  Occ=0.000000D+00  E= 2.570603D+00

 Vector  148  Occ=0.000000D+00  E= 2.627125D+00

 Vector  149  Occ=0.000000D+00  E= 2.664844D+00

 Vector  150  Occ=0.000000D+00  E= 2.675426D+00

 Vector  151  Occ=0.000000D+00  E= 2.780667D+00

 Vector  152  Occ=0.000000D+00  E= 2.827343D+00

 Vector  153  Occ=0.000000D+00  E= 3.000245D+00

 Vector  154  Occ=0.000000D+00  E= 3.034320D+00

 Vector  155  Occ=0.000000D+00  E= 3.163791D+00

 Vector  156  Occ=0.000000D+00  E= 3.406436D+00

 Vector  157  Occ=0.000000D+00  E= 4.020759D+00

 Vector  158  Occ=0.000000D+00  E= 4.548720D+00

     Multipole analysis of the density
     ---------------------------------

     L   x y z        total         alpha         beta         nuclear
     -   - - -        -----         -----         ----         -------
     0   0 0 0     -0.000000    -38.000000    -38.000000     76.000000

     1   1 0 0      1.408467      0.589289      0.589289      0.229888
     1   0 1 0      0.966743      0.185139      0.185139      0.596466
     1   0 0 1     -0.306452     -2.187776     -2.187776      4.069101

     2   2 0 0    -42.999888   -166.535070   -166.535070    290.070251
     2   1 1 0     -6.988109      7.716915      7.716915    -22.421939
     2   1 0 1     -0.252432      6.981068      6.981068    -14.214567
     2   0 2 0    -43.745946   -606.496128   -606.496128   1169.246310
     2   0 1 1      0.526563      3.943045      3.943045     -7.359527

 Zero-Point correction to Energy  =   62.474 kcal/mol  (  0.099559 au)
 Thermal correction to Energy     =   68.021 kcal/mol  (  0.108398 au)
 Thermal correction to Enthalpy   =   68.613 kcal/mol  (  0.109342 au)
 Total Entropy                    =   96.462 cal/mol-K
   - Translational                =   40.828 cal/mol-K (mol. weight = 145.9972)
   - Rotational                   =   29.629 cal/mol-K (symmetry #  =        1)
   - Vibrational                  =   26.006 cal/mol-K
   - Translational                  =    2.979 cal/mol-K
   - Rotational                     =    2.979 cal/mol-K
   - Vibrational                    =   24.142 cal/mol-K
 P.Frequency       -0.00       -0.00       -0.00       -0.00       -0.00       -0.00
 P.Frequency       19.47       81.99      117.98      124.37      185.83      283.08
 P.Frequency      360.75      428.48      487.95      548.66      576.14      635.52
 P.Frequency      696.14      735.99      908.96      964.81     1002.94     1004.87
 P.Frequency     1035.51     1121.71     1128.67     1141.56     1178.50     1224.57
 P.Frequency     1275.12     1285.80     1456.91     1471.53     1531.50     1672.67
 P.Frequency     3037.14     3047.96     3106.11     3114.71     3155.25     3572.97

 Normal Eigenvalue ||           Projected Infra Red Intensities
  Mode   [cm**-1]  || [atomic units] [(debye/angs)**2] [(KM/mol)] [arbitrary]
 ------ ---------- || -------------- ----------------- ---------- -----------
    1       -0.000 ||    0.000056           0.001         0.054       0.025
    2       -0.000 ||    0.001608           0.037         1.568       0.711
    3       -0.000 ||    0.000524           0.012         0.510       0.232
    4       -0.000 ||    0.002442           0.056         2.381       1.080
    5       -0.000 ||    0.000233           0.005         0.227       0.103
    6       -0.000 ||    0.000292           0.007         0.285       0.129
    7       19.471 ||    0.000659           0.015         0.642       0.291
    8       81.987 ||    0.002535           0.058         2.472       1.121
    9      117.977 ||    0.008290           0.191         8.081       3.667
   10      124.367 ||    0.002682           0.062         2.615       1.186
   11      185.826 ||    0.000662           0.015         0.645       0.293
   12      283.082 ||    0.017710           0.409        17.265       7.833
   13      360.754 ||    0.000463           0.011         0.451       0.205
   14      428.477 ||    0.007077           0.163         6.899       3.130
   15      487.947 ||    0.075668           1.746        73.765      33.469
   16      548.660 ||    0.005863           0.135         5.716       2.593
   17      576.141 ||    0.010984           0.253        10.707       4.858
   18      635.520 ||    0.017408           0.402        16.971       7.700
   19      696.141 ||    0.001961           0.045         1.911       0.867
   20      735.987 ||    0.005146           0.119         5.017       2.276
   21      908.956 ||    0.000641           0.015         0.625       0.283
   22      964.810 ||    0.018897           0.436        18.422       8.358
   23     1002.938 ||    0.018953           0.437        18.477       8.383
   24     1004.870 ||    0.004686           0.108         4.568       2.072
   25     1035.515 ||    0.006095           0.141         5.942       2.696
   26     1121.711 ||    0.010226           0.236         9.969       4.523
   27     1128.670 ||    0.001200           0.028         1.169       0.531
   28     1141.562 ||    0.012188           0.281        11.882       5.391
   29     1178.504 ||    0.017574           0.405        17.132       7.773
   30     1224.575 ||    0.029676           0.685        28.930      13.126
   31     1275.119 ||    0.033847           0.781        32.996      14.971
   32     1285.798 ||    0.061066           1.409        59.530      27.010
   33     1456.915 ||    0.006690           0.154         6.522       2.959
   34     1471.526 ||    0.099796           2.302        97.286      44.141
   35     1531.503 ||    0.315989           7.290       308.041     139.766
   36     1672.669 ||    0.005775           0.133         5.629       2.554
   37     3037.141 ||    0.030409           0.702        29.644      13.450
   38     3047.959 ||    0.043795           1.010        42.693      19.371
   39     3106.106 ||    0.002906           0.067         2.833       1.285
   40     3114.709 ||    0.016627           0.384        16.208       7.354
   41     3155.248 ||    0.013506           0.312        13.166       5.974
   42     3572.975 ||    0.036751           0.848        35.827      16.255
 ----------------------------------------------------------------------------

 Total times  cpu:      809.5s     wall:      809.5s
