         Total DFT energy =     -528.686713100608
@ Step       Energy      Delta E   Gmax     Grms     Xrms     Xmax   Walltime
@ ---- ---------------- -------- -------- -------- -------- -------- --------
@    0    -528.68671310  0.0D+00  0.01067  0.00264  0.00000  0.00000     22.8
         Total DFT energy =     -528.686883396554
         Total DFT energy =     -528.686914949559
@    1    -528.68691495 -2.0D-04  0.00234  0.00090  0.00385  0.01051     48.6
         Total DFT energy =     -528.686930701851
         Total DFT energy =     -528.686942552549
@    2    -528.68694255 -2.8D-05  0.00048  0.00022  0.00156  0.00383     74.7
         Total DFT energy =     -528.686945452477
         Total DFT energy =   -528.686945452477
@    3    -528.68694545 -2.9D-06  0.00045  0.00021  0.00137  0.00323     90.6
         Total DFT energy =     -528.686947567407
         Total DFT energy =   -528.686947567407
@    4    -528.68694757 -2.1D-06  0.00033  0.00012  0.00075  0.00222    106.5
         Total DFT energy =     -528.686947720717
         Total DFT energy =   -528.686947720717
@    5    -528.68694772 -1.5D-07  0.00048  0.00014  0.00069  0.00297    122.2
         Total DFT energy =     -528.686949008952
         Total DFT energy =   -528.686949008952
@    6    -528.68694901 -1.3D-06  0.00008  0.00002  0.00040  0.00187    138.1
         Total DFT energy =     -528.686949023471
         Total DFT energy =   -528.686949023471
@    7    -528.68694902 -1.5D-08  0.00009  0.00003  0.00013  0.00040    152.6
@    7    -528.68694902 -1.5D-08  0.00009  0.00003  0.00013  0.00040    152.6

 Output coordinates in angstroms (scale by  1.889725989 to convert to a.u.)

  No.       Tag          Charge          X              Y              Z
 ---- ---------------- ---------- -------------- -------------- --------------
    1 N                    7.0000    -1.20159154     3.44457145     0.53048952
    2 N                    7.0000     1.20151776     3.44437416     0.53069013
    3 C                    6.0000    -0.00006458     3.66552886     1.07881689
    4 C                    6.0000    -1.18570947     2.94467640    -0.71256012
    5 C                    6.0000     1.18576151     2.94447935    -0.71236057
    6 C                    6.0000     0.00006032     2.67102718    -1.39407688
    7 H                    1.0000    -0.00011551     4.07539436     2.09396726
    8 H                    1.0000    -2.16041372     2.75799027    -1.17526905
    9 H                    1.0000     2.16051215     2.75763036    -1.17490579
   10 H                    1.0000     0.00011180     2.26368756    -2.40590171
   11 N                    7.0000     1.20242841    -3.43938318    -0.53112476
   12 N                    7.0000    -1.20074912    -3.44091386    -0.53354052
   13 C                    6.0000     0.00153119    -3.65819991    -1.08168642
   14 C                    6.0000     1.18500395    -2.94749937     0.71511629
   15 C                    6.0000    -1.18645265    -2.94900975     0.71272836
   16 C                    6.0000    -0.00158354    -2.67884891     1.39718688
   17 H                    1.0000     0.00281272    -4.06142279    -2.09951877
   18 H                    1.0000     2.15914781    -2.76294069     1.17985706
   19 H                    1.0000    -2.16176121    -2.76568902     1.17551238
   20 H                    1.0000    -0.00286240    -2.27788714     2.41155151

         Total DFT energy =     -528.686951268896

                       DFT Final Molecular Orbital Analysis
                       ------------------------------------

 Vector    1  Occ=2.000000D+00  E=-1.434470D+01

 Vector  141  Occ=0.000000D+00  E= 1.490335D+00

 Vector  142  Occ=0.000000D+00  E= 1.490461D+00

 Vector  143  Occ=0.000000D+00  E= 1.536545D+00

 Vector  144  Occ=0.000000D+00  E= 1.536918D+00

 Vector  145  Occ=0.000000D+00  E= 1.543665D+00

 Vector  146  Occ=0.000000D+00  E= 1.543912D+00

 Vector  147  Occ=0.000000D+00  E= 1.609015D+00

 Vector  148  Occ=0.000000D+00  E= 1.609768D+00

 Vector  149  Occ=0.000000D+00  E= 1.615382D+00

 Vector  150  Occ=0.000000D+00  E= 1.615685D+00

 Vector  151  Occ=0.000000D+00  E= 1.626033D+00

 Vector  152  Occ=0.000000D+00  E= 1.626626D+00

 Vector  153  Occ=0.000000D+00  E= 1.635198D+00

 Vector  154  Occ=0.000000D+00  E= 1.635797D+00

 Vector  155  Occ=0.000000D+00  E= 1.705340D+00

 Vector  156  Occ=0.000000D+00  E= 1.706056D+00

 Vector  157  Occ=0.000000D+00  E= 1.708469D+00

 Vector  158  Occ=0.000000D+00  E= 1.708621D+00

 Vector  159  Occ=0.000000D+00  E= 1.727910D+00

 Vector  160  Occ=0.000000D+00  E= 1.728486D+00

 Vector  161  Occ=0.000000D+00  E= 1.806115D+00

 Vector  162  Occ=0.000000D+00  E= 1.806224D+00

 Vector  163  Occ=0.000000D+00  E= 1.815128D+00

 Vector  164  Occ=0.000000D+00  E= 1.815409D+00

 Vector  165  Occ=0.000000D+00  E= 1.821149D+00

 Vector  166  Occ=0.000000D+00  E= 1.821215D+00

 Vector  167  Occ=0.000000D+00  E= 1.930091D+00

 Vector  168  Occ=0.000000D+00  E= 1.930635D+00

 Vector  169  Occ=0.000000D+00  E= 1.946682D+00

 Vector  170  Occ=0.000000D+00  E= 1.947549D+00

 Vector  171  Occ=0.000000D+00  E= 2.008508D+00

 Vector  172  Occ=0.000000D+00  E= 2.008554D+00

 Vector  173  Occ=0.000000D+00  E= 2.056282D+00

 Vector  174  Occ=0.000000D+00  E= 2.056313D+00

 Vector  175  Occ=0.000000D+00  E= 2.125222D+00

 Vector  176  Occ=0.000000D+00  E= 2.125410D+00

 Vector  177  Occ=0.000000D+00  E= 2.148804D+00

 Vector  178  Occ=0.000000D+00  E= 2.149263D+00

 Vector  179  Occ=0.000000D+00  E= 2.154207D+00

 Vector  180  Occ=0.000000D+00  E= 2.154324D+00

 Vector  181  Occ=0.000000D+00  E= 2.161105D+00

 Vector  182  Occ=0.000000D+00  E= 2.161211D+00

 Vector  183  Occ=0.000000D+00  E= 2.225952D+00

 Vector  184  Occ=0.000000D+00  E= 2.226235D+00

 Vector  185  Occ=0.000000D+00  E= 2.342132D+00

 Vector  186  Occ=0.000000D+00  E= 2.342236D+00

 Vector  187  Occ=0.000000D+00  E= 2.366228D+00

 Vector  188  Occ=0.000000D+00  E= 2.366288D+00

 Vector  189  Occ=0.000000D+00  E= 2.442451D+00

 Vector  190  Occ=0.000000D+00  E= 2.442625D+00

 Vector  191  Occ=0.000000D+00  E= 2.464229D+00

 Vector  192  Occ=0.000000D+00  E= 2.464296D+00

 Vector  193  Occ=0.000000D+00  E= 2.477706D+00

 Vector  194  Occ=0.000000D+00  E= 2.477752D+00

 Vector  195  Occ=0.000000D+00  E= 2.542483D+00

 Vector  196  Occ=0.000000D+00  E= 2.542524D+00

 Vector  197  Occ=0.000000D+00  E= 2.543295D+00

 Vector  198  Occ=0.000000D+00  E= 2.543883D+00

 Vector  199  Occ=0.000000D+00  E= 2.669260D+00

 Vector  200  Occ=0.000000D+00  E= 2.669314D+00

 Vector  201  Occ=0.000000D+00  E= 2.753922D+00

 Vector  202  Occ=0.000000D+00  E= 2.754047D+00

 Vector  203  Occ=0.000000D+00  E= 2.827503D+00

 Vector  204  Occ=0.000000D+00  E= 2.827709D+00

 Vector  205  Occ=0.000000D+00  E= 2.830200D+00

 Vector  206  Occ=0.000000D+00  E= 2.830270D+00

 Vector  207  Occ=0.000000D+00  E= 2.885325D+00

 Vector  208  Occ=0.000000D+00  E= 2.885434D+00

 Vector  209  Occ=0.000000D+00  E= 2.922619D+00

 Vector  210  Occ=0.000000D+00  E= 2.922666D+00

 Vector  211  Occ=0.000000D+00  E= 3.084533D+00

 Vector  212  Occ=0.000000D+00  E= 3.084919D+00

 Vector  213  Occ=0.000000D+00  E= 3.322086D+00

 Vector  214  Occ=0.000000D+00  E= 3.322258D+00

 Vector  215  Occ=0.000000D+00  E= 3.564128D+00

 Vector  216  Occ=0.000000D+00  E= 3.564229D+00

 Vector  217  Occ=0.000000D+00  E= 4.230791D+00

 Vector  218  Occ=0.000000D+00  E= 4.231301D+00

 Vector  219  Occ=0.000000D+00  E= 4.398100D+00

 Vector  220  Occ=0.000000D+00  E= 4.399299D+00

     Multipole analysis of the density
     ---------------------------------

     L   x y z        total         alpha         beta         nuclear
     -   - - -        -----         -----         ----         -------
     0   0 0 0     -0.000000    -42.000000    -42.000000     84.000000

     1   1 0 0     -0.000925     -0.000416     -0.000416     -0.000093
     1   0 1 0     -0.005270     -0.002849     -0.002849      0.000427
     1   0 0 1      0.002241      0.001234      0.001234     -0.000227

     2   2 0 0    -54.252453   -192.893467   -192.893467    331.534481
     2   1 1 0      0.004328     -0.004643     -0.004643      0.013614
     2   1 0 1     -0.005034      0.002878      0.002878     -0.010789
     2   0 2 0    -59.201366  -1566.631369  -1566.631369   3074.061372
     2   0 1 1     -7.122742      2.525483      2.525483    -12.173708

 Zero-Point correction to Energy  =   96.648 kcal/mol  (  0.154018 au)
 Thermal correction to Energy     =  103.378 kcal/mol  (  0.164743 au)
 Thermal correction to Enthalpy   =  103.970 kcal/mol  (  0.165687 au)
 Total Entropy                    =  114.075 cal/mol-K
   - Translational                =   41.102 cal/mol-K (mol. weight = 160.0749)
   - Rotational                   =   32.175 cal/mol-K (symmetry #  =        1)
   - Vibrational                  =   40.798 cal/mol-K
   - Translational                  =    2.979 cal/mol-K
   - Rotational                     =    2.979 cal/mol-K
   - Vibrational                    =   30.339 cal/mol-K
 P.Frequency       -0.00       -0.00       -0.00        0.00        0.00        0.00
 P.Frequency       25.94       34.23       37.50       38.34       38.69       40.06
 P.Frequency      355.15      355.32      410.12      410.16      632.29      632.50
 P.Frequency      692.44      692.57      740.95      742.44      824.31      824.75
 P.Frequency      980.92      981.13     1001.20     1001.24     1011.04     1011.11
 P.Frequency     1026.55     1026.68     1081.83     1082.19     1090.43     1090.59
 P.Frequency     1159.73     1159.79     1225.35     1225.55     1262.04     1262.17
 P.Frequency     1380.69     1382.37     1429.40     1429.84     1488.41     1488.52
 P.Frequency     1617.36     1617.42     1620.00     1620.69     3152.66     3152.68
 P.Frequency     3155.60     3155.85     3162.47     3162.70     3207.13     3207.23

 Normal Eigenvalue ||           Projected Infra Red Intensities
  Mode   [cm**-1]  || [atomic units] [(debye/angs)**2] [(KM/mol)] [arbitrary]
 ------ ---------- || -------------- ----------------- ---------- -----------
    1       -0.000 ||    0.000000           0.000         0.000       0.000
    2       -0.000 ||    0.000000           0.000         0.000       0.000
    3       -0.000 ||    0.000000           0.000         0.000       0.000
    4        0.000 ||    0.000000           0.000         0.000       0.000
    5        0.000 ||    0.000000           0.000         0.000       0.000
    6        0.000 ||    0.000000           0.000         0.000       0.000
    7       25.937 ||    0.000000           0.000         0.000       0.000
    8       34.234 ||    0.005175           0.119         5.044       4.769
    9       37.498 ||    0.002185           0.050         2.130       2.014
   10       38.337 ||    0.000001           0.000         0.001       0.001
   11       38.689 ||    0.000076           0.002         0.074       0.070
   12       40.059 ||    0.000000           0.000         0.000       0.000
   13      355.147 ||    0.006022           0.139         5.870       5.550
   14      355.317 ||    0.000000           0.000         0.000       0.000
   15      410.120 ||    0.000000           0.000         0.000       0.000
   16      410.165 ||    0.000022           0.001         0.021       0.020
   17      632.288 ||    0.000016           0.000         0.015       0.014
   18      632.498 ||    0.022686           0.523        22.116      20.909
   19      692.440 ||    0.007605           0.175         7.414       7.009
   20      692.570 ||    0.000008           0.000         0.008       0.007
   21      740.949 ||    0.000001           0.000         0.001       0.001
   22      742.444 ||    0.067408           1.555        65.713      62.126
   23      824.306 ||    0.000001           0.000         0.001       0.001
   24      824.745 ||    0.006798           0.157         6.627       6.266
   25      980.921 ||    0.000051           0.001         0.049       0.047
   26      981.128 ||    0.000001           0.000         0.001       0.001
   27     1001.198 ||    0.000020           0.000         0.020       0.019
   28     1001.238 ||    0.000002           0.000         0.002       0.002
   29     1011.039 ||    0.000052           0.001         0.051       0.048
   30     1011.113 ||    0.010033           0.231         9.781       9.247
   31     1026.547 ||    0.000000           0.000         0.000       0.000
   32     1026.683 ||    0.000000           0.000         0.000       0.000
   33     1081.832 ||    0.003028           0.070         2.952       2.791
   34     1082.193 ||    0.000001           0.000         0.001       0.001
   35     1090.431 ||    0.000000           0.000         0.000       0.000
   36     1090.590 ||    0.006131           0.141         5.977       5.651
   37     1159.731 ||    0.000011           0.000         0.011       0.010
   38     1159.789 ||    0.004223           0.097         4.117       3.892
   39     1225.347 ||    0.012504           0.288        12.189      11.524
   40     1225.549 ||    0.000013           0.000         0.013       0.012
   41     1262.039 ||    0.005985           0.138         5.834       5.516
   42     1262.173 ||    0.000007           0.000         0.006       0.006
   43     1380.688 ||    0.000376           0.009         0.366       0.346
   44     1382.371 ||    0.000000           0.000         0.000       0.000
   45     1429.401 ||    0.000067           0.002         0.065       0.062
   46     1429.843 ||    0.107983           2.491       105.267      99.521
   47     1488.406 ||    0.000128           0.003         0.125       0.118
   48     1488.517 ||    0.014270           0.329        13.911      13.152
   49     1617.359 ||    0.003066           0.071         2.989       2.826
   50     1617.424 ||    0.079686           1.838        77.682      73.441
   51     1619.997 ||    0.000072           0.002         0.070       0.066
   52     1620.693 ||    0.154904           3.574       151.008     142.765
   53     3152.657 ||    0.018704           0.432        18.234      17.239
   54     3152.676 ||    0.010489           0.242        10.225       9.667
   55     3155.604 ||    0.000018           0.000         0.018       0.017
   56     3155.847 ||    0.048812           1.126        47.585      44.987
   57     3162.471 ||    0.012928           0.298        12.602      11.915
   58     3162.702 ||    0.022134           0.511        21.578      20.400
   59     3207.128 ||    0.000328           0.008         0.320       0.302
   60     3207.233 ||    0.016985           0.392        16.558      15.654
 ----------------------------------------------------------------------------

 Total times  cpu:      733.1s     wall:      733.1s
