         Total DFT energy =    -1404.738082902138
@ Step       Energy      Delta E   Gmax     Grms     Xrms     Xmax   Walltime
@ ---- ---------------- -------- -------- -------- -------- -------- --------
@    0   -1404.73808290  0.0D+00  0.04520  0.01324  0.00000  0.00000     26.0
         Total DFT energy =    -1404.774710344145
         Total DFT energy =    -1404.776706947132
@    1   -1404.77670695 -3.9D-02  0.02449  0.00602  0.16149  0.41503     59.9
         Total DFT energy =    -1404.783456767635
         Total DFT energy =    -1404.784359521001
@    2   -1404.78435952 -7.7D-03  0.00903  0.00213  0.06955  0.22969     92.6
         Total DFT energy =    -1404.786471034712
         Total DFT energy =    -1404.787517785445
@    3   -1404.78751779 -3.2D-03  0.00443  0.00139  0.05209  0.14824    124.4
         Total DFT energy =    -1404.788901715805
         Total DFT energy =    -1404.789384866183
@    4   -1404.78938487 -1.9D-03  0.00657  0.00178  0.06938  0.18856    156.0
         Total DFT energy =    -1404.790694215103
         Total DFT energy =    -1404.791420517714
@    5   -1404.79142052 -2.0D-03  0.00469  0.00143  0.05840  0.22270    187.7
         Total DFT energy =    -1404.792189169391
         Total DFT energy =    -1404.792503122581
@    6   -1404.79250312 -1.1D-03  0.00213  0.00077  0.05329  0.14038    217.6
         Total DFT energy =    -1404.792841864767
         Total DFT energy =    -1404.792938599653
@    7   -1404.79293860 -4.4D-04  0.00348  0.00069  0.03116  0.09409    248.3
         Total DFT energy =    -1404.793201761478
         Total DFT energy =    -1404.793313972867
@    8   -1404.79331397 -3.8D-04  0.00222  0.00063  0.03799  0.11561    280.0
         Total DFT energy =    -1404.793524832795
         Total DFT energy =    -1404.793663326352
@    9   -1404.79366333 -3.5D-04  0.00191  0.00047  0.04072  0.15203    311.5
         Total DFT energy =    -1404.793727292200
         Total DFT energy =    -1404.793739242887
@   10   -1404.79373924 -7.6D-05  0.00074  0.00019  0.01382  0.04406    341.4
         Total DFT energy =    -1404.793752469873
         Total DFT energy =    -1404.793752938350
@   11   -1404.79375294 -1.4D-05  0.00030  0.00011  0.00598  0.01583    367.2
         Total DFT energy =    -1404.793759879494
         Total DFT energy =    -1404.793759954868
@   12   -1404.79375995 -7.0D-06  0.00032  0.00007  0.00402  0.01019    393.9
         Total DFT energy =    -1404.793761915311
         Total DFT energy =  -1404.793761915311
@   13   -1404.79376192 -2.0D-06  0.00013  0.00004  0.00131  0.00463    411.8
         Total DFT energy =    -1404.793764675399
         Total DFT energy =  -1404.793764675399
@   14   -1404.79376468 -2.8D-06  0.00017  0.00004  0.00268  0.00967    430.8
         Total DFT energy =    -1404.793766216099
         Total DFT energy =  -1404.793766216099
@   15   -1404.79376622 -1.5D-06  0.00017  0.00004  0.00245  0.00859    448.7
         Total DFT energy =    -1404.793768472743
         Total DFT energy =  -1404.793768472743
@   16   -1404.79376847 -2.3D-06  0.00015  0.00004  0.00482  0.01628    466.7
         Total DFT energy =    -1404.793770215998
         Total DFT energy =  -1404.793770215998
@   17   -1404.79377022 -1.7D-06  0.00012  0.00003  0.00270  0.00822    486.4
         Total DFT energy =    -1404.793771261234
         Total DFT energy =  -1404.793771261234
@   18   -1404.79377126 -1.0D-06  0.00014  0.00003  0.00469  0.01420    504.5
         Total DFT energy =    -1404.793771963965
         Total DFT energy =  -1404.793771963965
@   19   -1404.79377196 -7.0D-07  0.00007  0.00002  0.00063  0.00170    522.3
@   19   -1404.79377196 -7.0D-07  0.00007  0.00002  0.00063  0.00170    522.3

 Output coordinates in angstroms (scale by  1.889725989 to convert to a.u.)

  No.       Tag          Charge          X              Y              Z
 ---- ---------------- ---------- -------------- -------------- --------------
    1 C                    6.0000    -0.54842529     1.30781291     0.65623759
    2 C                    6.0000    -1.30401359    -0.05401754     0.54394421
    3 C                    6.0000     0.35026254    -1.93290578    -0.11349388
    4 C                    6.0000     0.70926807     0.54240623     0.21981363
    5 H                    1.0000    -2.10090802     3.05773276     0.20006480
    6 H                    1.0000    -0.46261194     1.69268932     1.68173070
    7 H                    1.0000    -2.04822826    -0.11555330    -0.26070491
    8 H                    1.0000    -1.70789924    -0.46677774     1.47891798
    9 H                    1.0000     1.42074594    -2.01362735    -0.34884958
   10 N                    7.0000    -0.01001091    -0.65117211     0.16773047
   11 S                   16.0000    -0.99603567     2.66749441    -0.48976449
   12 S                   16.0000    -0.68843333    -3.20701669    -0.10002617
   13 S                   16.0000     2.27229091     0.89802954    -0.07852165

         Total DFT energy =    -1404.793775190781

                       DFT Final Molecular Orbital Analysis
                       ------------------------------------

 Vector    1  Occ=2.000000D+00  E=-8.891228D+01

 Vector   78  Occ=0.000000D+00  E= 5.677074D-01

 Vector   79  Occ=0.000000D+00  E= 5.840022D-01

 Vector   80  Occ=0.000000D+00  E= 5.867740D-01

 Vector   81  Occ=0.000000D+00  E= 5.934893D-01

 Vector   82  Occ=0.000000D+00  E= 5.994048D-01

 Vector   83  Occ=0.000000D+00  E= 6.142329D-01

 Vector   84  Occ=0.000000D+00  E= 6.226180D-01

 Vector   85  Occ=0.000000D+00  E= 6.304599D-01

 Vector   86  Occ=0.000000D+00  E= 6.389695D-01

 Vector   87  Occ=0.000000D+00  E= 6.460631D-01

 Vector   88  Occ=0.000000D+00  E= 6.594296D-01

 Vector   89  Occ=0.000000D+00  E= 6.667408D-01

 Vector   90  Occ=0.000000D+00  E= 6.873135D-01

 Vector   91  Occ=0.000000D+00  E= 7.239309D-01

 Vector   92  Occ=0.000000D+00  E= 7.282838D-01

 Vector   93  Occ=0.000000D+00  E= 7.620808D-01

 Vector   94  Occ=0.000000D+00  E= 7.734689D-01

 Vector   95  Occ=0.000000D+00  E= 8.188282D-01

 Vector   96  Occ=0.000000D+00  E= 8.450654D-01

 Vector   97  Occ=0.000000D+00  E= 8.699360D-01

 Vector   98  Occ=0.000000D+00  E= 8.908624D-01

 Vector   99  Occ=0.000000D+00  E= 9.264113D-01

 Vector  100  Occ=0.000000D+00  E= 9.429479D-01

 Vector  101  Occ=0.000000D+00  E= 9.655078D-01

 Vector  102  Occ=0.000000D+00  E= 9.869771D-01

 Vector  103  Occ=0.000000D+00  E= 1.005831D+00

 Vector  104  Occ=0.000000D+00  E= 1.034637D+00

 Vector  105  Occ=0.000000D+00  E= 1.057069D+00

 Vector  106  Occ=0.000000D+00  E= 1.086641D+00

 Vector  107  Occ=0.000000D+00  E= 1.176887D+00

 Vector  108  Occ=0.000000D+00  E= 1.210921D+00

 Vector  109  Occ=0.000000D+00  E= 1.253345D+00

 Vector  110  Occ=0.000000D+00  E= 1.271122D+00

 Vector  111  Occ=0.000000D+00  E= 1.298489D+00

 Vector  112  Occ=0.000000D+00  E= 1.341647D+00

 Vector  113  Occ=0.000000D+00  E= 1.385128D+00

 Vector  114  Occ=0.000000D+00  E= 1.399787D+00

 Vector  115  Occ=0.000000D+00  E= 1.411456D+00

 Vector  116  Occ=0.000000D+00  E= 1.428371D+00

 Vector  117  Occ=0.000000D+00  E= 1.463009D+00

 Vector  118  Occ=0.000000D+00  E= 1.465425D+00

 Vector  119  Occ=0.000000D+00  E= 1.521674D+00

 Vector  120  Occ=0.000000D+00  E= 1.539631D+00

 Vector  121  Occ=0.000000D+00  E= 1.584120D+00

 Vector  122  Occ=0.000000D+00  E= 1.615962D+00

 Vector  123  Occ=0.000000D+00  E= 1.638191D+00

 Vector  124  Occ=0.000000D+00  E= 1.657250D+00

 Vector  125  Occ=0.000000D+00  E= 1.678105D+00

 Vector  126  Occ=0.000000D+00  E= 1.704167D+00

 Vector  127  Occ=0.000000D+00  E= 1.715607D+00

 Vector  128  Occ=0.000000D+00  E= 1.741063D+00

 Vector  129  Occ=0.000000D+00  E= 1.766810D+00

 Vector  130  Occ=0.000000D+00  E= 1.812895D+00

 Vector  131  Occ=0.000000D+00  E= 1.856962D+00

 Vector  132  Occ=0.000000D+00  E= 1.863369D+00

 Vector  133  Occ=0.000000D+00  E= 1.910411D+00

 Vector  134  Occ=0.000000D+00  E= 1.944493D+00

 Vector  135  Occ=0.000000D+00  E= 1.966467D+00

 Vector  136  Occ=0.000000D+00  E= 2.019635D+00

 Vector  137  Occ=0.000000D+00  E= 2.034032D+00

 Vector  138  Occ=0.000000D+00  E= 2.056460D+00

 Vector  139  Occ=0.000000D+00  E= 2.093773D+00

 Vector  140  Occ=0.000000D+00  E= 2.212437D+00

 Vector  141  Occ=0.000000D+00  E= 2.242383D+00

 Vector  142  Occ=0.000000D+00  E= 2.286307D+00

 Vector  143  Occ=0.000000D+00  E= 2.311842D+00

 Vector  144  Occ=0.000000D+00  E= 2.333427D+00

 Vector  145  Occ=0.000000D+00  E= 2.339800D+00

 Vector  146  Occ=0.000000D+00  E= 2.395765D+00

 Vector  147  Occ=0.000000D+00  E= 2.435927D+00

 Vector  148  Occ=0.000000D+00  E= 2.484654D+00

 Vector  149  Occ=0.000000D+00  E= 2.507588D+00

 Vector  150  Occ=0.000000D+00  E= 2.627187D+00

 Vector  151  Occ=0.000000D+00  E= 2.736582D+00

 Vector  152  Occ=0.000000D+00  E= 2.799458D+00

 Vector  153  Occ=0.000000D+00  E= 2.922995D+00

 Vector  154  Occ=0.000000D+00  E= 2.993549D+00

 Vector  155  Occ=0.000000D+00  E= 3.034139D+00

 Vector  156  Occ=0.000000D+00  E= 3.400076D+00

 Vector  157  Occ=0.000000D+00  E= 4.433304D+00

     Multipole analysis of the density
     ---------------------------------

     L   x y z        total         alpha         beta         nuclear
     -   - - -        -----         -----         ----         -------
     0   0 0 0     -0.000000    -42.000000    -42.000000     84.000000

     1   1 0 0     -0.905518     -0.149196     -0.149196     -0.607125
     1   0 1 0      0.592370     -2.077453     -2.077453      4.747275
     1   0 0 1      0.692157     -0.666139     -0.666139      2.024435

     2   2 0 0    -50.456654   -267.329239   -267.329239    484.201823
     2   1 1 0     -5.362604    -22.037612    -22.037612     38.712619
     2   1 0 1     -1.683512      5.164249      5.164249    -12.012011
     2   0 2 0    -57.699814   -645.290233   -645.290233   1232.880652
     2   0 1 1      1.508826     13.535159     13.535159    -25.561492

 Zero-Point correction to Energy  =   53.091 kcal/mol  (  0.084605 au)
 Thermal correction to Energy     =   58.522 kcal/mol  (  0.093261 au)
 Thermal correction to Enthalpy   =   59.114 kcal/mol  (  0.094205 au)
 Total Entropy                    =   94.369 cal/mol-K
   - Translational                =   41.155 cal/mol-K (mol. weight = 162.9584)
   - Rotational                   =   30.475 cal/mol-K (symmetry #  =        1)
   - Vibrational                  =   22.738 cal/mol-K
   - Translational                  =    2.979 cal/mol-K
   - Rotational                     =    2.979 cal/mol-K
   - Vibrational                    =   23.568 cal/mol-K
 P.Frequency       -0.00       -0.00       -0.00       -0.00        0.00        0.00
 P.Frequency       63.22      116.13      138.25      148.08      189.90      259.72
 P.Frequency      301.79      342.64      472.73      541.99      617.29      683.06
 P.Frequency      768.07      887.97      912.92      969.76     1001.54     1016.82
 P.Frequency     1062.47     1124.58     1138.36     1164.71     1219.80     1283.93
 P.Frequency     1345.73     1383.11     1439.45     1476.54     2645.01     3074.77
 P.Frequency     3097.57     3123.06     3144.19

 Normal Eigenvalue ||           Projected Infra Red Intensities
  Mode   [cm**-1]  || [atomic units] [(debye/angs)**2] [(KM/mol)] [arbitrary]
 ------ ---------- || -------------- ----------------- ---------- -----------
    1       -0.000 ||    0.000161           0.004         0.157       0.043
    2       -0.000 ||    0.000002           0.000         0.002       0.001
    3       -0.000 ||    0.000281           0.006         0.274       0.076
    4       -0.000 ||    0.000121           0.003         0.118       0.033
    5        0.000 ||    0.000761           0.018         0.741       0.206
    6        0.000 ||    0.000728           0.017         0.709       0.197
    7       63.218 ||    0.000695           0.016         0.677       0.188
    8      116.132 ||    0.001532           0.035         1.494       0.414
    9      138.252 ||    0.007435           0.172         7.248       2.009
   10      148.079 ||    0.003341           0.077         3.257       0.903
   11      189.895 ||    0.017285           0.399        16.850       4.671
   12      259.722 ||    0.000163           0.004         0.159       0.044
   13      301.786 ||    0.006424           0.148         6.262       1.736
   14      342.637 ||    0.003284           0.076         3.202       0.887
   15      472.728 ||    0.001321           0.030         1.288       0.357
   16      541.985 ||    0.001904           0.044         1.856       0.514
   17      617.293 ||    0.014716           0.340        14.346       3.976
   18      683.061 ||    0.007664           0.177         7.471       2.071
   19      768.067 ||    0.012716           0.293        12.396       3.436
   20      887.965 ||    0.003184           0.073         3.104       0.860
   21      912.923 ||    0.009736           0.225         9.491       2.631
   22      969.758 ||    0.003756           0.087         3.662       1.015
   23     1001.539 ||    0.005568           0.128         5.428       1.504
   24     1016.820 ||    0.015894           0.367        15.494       4.295
   25     1062.473 ||    0.043903           1.013        42.799      11.863
   26     1124.580 ||    0.024397           0.563        23.784       6.592
   27     1138.362 ||    0.001546           0.036         1.507       0.418
   28     1164.706 ||    0.012941           0.299        12.615       3.497
   29     1219.805 ||    0.008630           0.199         8.413       2.332
   30     1283.930 ||    0.011878           0.274        11.579       3.210
   31     1345.730 ||    0.205741           4.747       200.567      55.594
   32     1383.105 ||    0.109609           2.529       106.852      29.618
   33     1439.450 ||    0.754984          17.418       735.996     204.007
   34     1476.536 ||    0.129288           2.983       126.036      34.935
   35     2645.005 ||    0.005106           0.118         4.977       1.380
   36     3074.771 ||    0.009302           0.215         9.068       2.514
   37     3097.565 ||    0.002608           0.060         2.542       0.705
   38     3123.057 ||    0.000274           0.006         0.267       0.074
   39     3144.186 ||    0.004425           0.102         4.314       1.196
 ----------------------------------------------------------------------------

 Total times  cpu:      935.5s     wall:      935.5s
