         Total DFT energy =    -1082.893128707957
@ Step       Energy      Delta E   Gmax     Grms     Xrms     Xmax   Walltime
@ ---- ---------------- -------- -------- -------- -------- -------- --------
@    0   -1082.89312871  0.0D+00  0.10567  0.02618  0.00000  0.00000     30.1
         Total DFT energy =    -1082.970983469004
         Total DFT energy =  -1082.970983469004
@    1   -1082.97098347 -7.8D-02  0.03137  0.00643  0.35161  0.89956     56.1
         Total DFT energy =    -1082.979600830514
         Total DFT energy =  -1082.979600830514
@    2   -1082.97960083 -8.6D-03  0.01878  0.00481  0.17668  0.40818     81.2
         Total DFT energy =    -1082.983782166036
         Total DFT energy =    -1082.983930424212
@    3   -1082.98393042 -4.3D-03  0.00926  0.00234  0.12819  0.31795    116.0
         Total DFT energy =    -1082.985497401335
         Total DFT energy =    -1082.985546585989
@    4   -1082.98554659 -1.6D-03  0.00486  0.00139  0.09548  0.24414    149.6
         Total DFT energy =    -1082.986111861159
         Total DFT energy =    -1082.986217916789
@    5   -1082.98621792 -6.7D-04  0.00604  0.00117  0.06747  0.18568    183.3
         Total DFT energy =    -1082.986600280223
         Total DFT energy =    -1082.986705955642
@    6   -1082.98670596 -4.9D-04  0.00759  0.00144  0.04675  0.11645    218.3
         Total DFT energy =    -1082.987052705413
         Total DFT energy =    -1082.987160714410
@    7   -1082.98716071 -4.5D-04  0.00380  0.00103  0.04173  0.12247    253.4
         Total DFT energy =    -1082.987480582477
         Total DFT energy =    -1082.987770535492
@    8   -1082.98777054 -6.1D-04  0.00479  0.00121  0.09922  0.21441    297.4
         Total DFT energy =    -1082.988108591593
         Total DFT energy =    -1082.988310832259
@    9   -1082.98831083 -5.4D-04  0.00284  0.00080  0.09060  0.23190    333.3
         Total DFT energy =    -1082.988473995615
         Total DFT energy =    -1082.988516101972
@   10   -1082.98851610 -2.1D-04  0.00219  0.00054  0.04762  0.10644    368.1
         Total DFT energy =    -1082.988561244266
         Total DFT energy =    -1082.988564994541
@   11   -1082.98856499 -4.9D-05  0.00081  0.00022  0.01664  0.03556    398.3
         Total DFT energy =    -1082.988575728682
         Total DFT energy =    -1082.988576555834
@   12   -1082.98857656 -1.2D-05  0.00044  0.00011  0.00550  0.01275    428.7
         Total DFT energy =    -1082.988578256843
         Total DFT energy =  -1082.988578256843
@   13   -1082.98857826 -1.7D-06  0.00015  0.00004  0.00121  0.00283    450.3
         Total DFT energy =    -1082.988579010519
         Total DFT energy =  -1082.988579010519
@   14   -1082.98857901 -7.5D-07  0.00008  0.00003  0.00110  0.00314    479.7
         Total DFT energy =    -1082.988579538145
         Total DFT energy =  -1082.988579538145
@   15   -1082.98857954 -5.3D-07  0.00004  0.00001  0.00132  0.00276    501.1
         Total DFT energy =    -1082.988579626857
         Total DFT energy =  -1082.988579626857
@   16   -1082.98857963 -8.9D-08  0.00009  0.00002  0.00081  0.00204    521.2
         Total DFT energy =    -1082.988579653946
         Total DFT energy =  -1082.988579653946
@   17   -1082.98857965 -2.7D-08  0.00009  0.00002  0.00056  0.00171    542.5
@   17   -1082.98857965 -2.7D-08  0.00009  0.00002  0.00056  0.00171    542.5

 Output coordinates in angstroms (scale by  1.889725989 to convert to a.u.)

  No.       Tag          Charge          X              Y              Z
 ---- ---------------- ---------- -------------- -------------- --------------
    1 C                    6.0000    -0.55868797     1.14042167     1.01789538
    2 C                    6.0000    -0.08657134    -0.20245089     0.50180779
    3 C                    6.0000     2.21758427     0.34414467     0.07137695
    4 C                    6.0000     2.03799665     1.26964939    -0.87161199
    5 H                    1.0000    -2.46507972     1.03565212    -0.40460776
    6 H                    1.0000     0.29400300     1.79652656     1.23215727
    7 H                    1.0000    -1.11663656     0.98010269     1.95231820
    8 H                    1.0000     3.18745846     0.11792177     0.51782511
    9 H                    1.0000     2.89922136     1.84839115    -1.20631772
   10 H                    1.0000     1.06622879     1.47460318    -1.32503090
   11 H                    1.0000     0.83872361    -2.61950841    -0.26117429
   12 N                    7.0000    -0.94009584    -1.07235656     0.13913481
   13 O                    8.0000     1.26209539    -0.49598672     0.60795041
   14 S                   16.0000    -1.62441282     2.07463479    -0.16345728
   15 S                   16.0000    -0.52170361    -2.65009081    -0.38590530

         Total DFT energy =    -1082.988578501841

                       DFT Final Molecular Orbital Analysis
                       ------------------------------------

 Vector    1  Occ=2.000000D+00  E=-8.891886D+01

 Vector   84  Occ=0.000000D+00  E= 6.933200D-01

 Vector   85  Occ=0.000000D+00  E= 7.234347D-01

 Vector   86  Occ=0.000000D+00  E= 7.719459D-01

 Vector   87  Occ=0.000000D+00  E= 8.048715D-01

 Vector   88  Occ=0.000000D+00  E= 8.112637D-01

 Vector   89  Occ=0.000000D+00  E= 8.556460D-01

 Vector   90  Occ=0.000000D+00  E= 8.663512D-01

 Vector   91  Occ=0.000000D+00  E= 9.239107D-01

 Vector   92  Occ=0.000000D+00  E= 9.468728D-01

 Vector   93  Occ=0.000000D+00  E= 9.527729D-01

 Vector   94  Occ=0.000000D+00  E= 9.622804D-01

 Vector   95  Occ=0.000000D+00  E= 9.728177D-01

 Vector   96  Occ=0.000000D+00  E= 9.832676D-01

 Vector   97  Occ=0.000000D+00  E= 9.960418D-01

 Vector   98  Occ=0.000000D+00  E= 1.022790D+00

 Vector   99  Occ=0.000000D+00  E= 1.036608D+00

 Vector  100  Occ=0.000000D+00  E= 1.048591D+00

 Vector  101  Occ=0.000000D+00  E= 1.093827D+00

 Vector  102  Occ=0.000000D+00  E= 1.105100D+00

 Vector  103  Occ=0.000000D+00  E= 1.155080D+00

 Vector  104  Occ=0.000000D+00  E= 1.182682D+00

 Vector  105  Occ=0.000000D+00  E= 1.236577D+00

 Vector  106  Occ=0.000000D+00  E= 1.262620D+00

 Vector  107  Occ=0.000000D+00  E= 1.334718D+00

 Vector  108  Occ=0.000000D+00  E= 1.361762D+00

 Vector  109  Occ=0.000000D+00  E= 1.390957D+00

 Vector  110  Occ=0.000000D+00  E= 1.422409D+00

 Vector  111  Occ=0.000000D+00  E= 1.435363D+00

 Vector  112  Occ=0.000000D+00  E= 1.454707D+00

 Vector  113  Occ=0.000000D+00  E= 1.468902D+00

 Vector  114  Occ=0.000000D+00  E= 1.492553D+00

 Vector  115  Occ=0.000000D+00  E= 1.503096D+00

 Vector  116  Occ=0.000000D+00  E= 1.536508D+00

 Vector  117  Occ=0.000000D+00  E= 1.543305D+00

 Vector  118  Occ=0.000000D+00  E= 1.554657D+00

 Vector  119  Occ=0.000000D+00  E= 1.567113D+00

 Vector  120  Occ=0.000000D+00  E= 1.605749D+00

 Vector  121  Occ=0.000000D+00  E= 1.637867D+00

 Vector  122  Occ=0.000000D+00  E= 1.651068D+00

 Vector  123  Occ=0.000000D+00  E= 1.662398D+00

 Vector  124  Occ=0.000000D+00  E= 1.677833D+00

 Vector  125  Occ=0.000000D+00  E= 1.712519D+00

 Vector  126  Occ=0.000000D+00  E= 1.738381D+00

 Vector  127  Occ=0.000000D+00  E= 1.809132D+00

 Vector  128  Occ=0.000000D+00  E= 1.833370D+00

 Vector  129  Occ=0.000000D+00  E= 1.866834D+00

 Vector  130  Occ=0.000000D+00  E= 1.898207D+00

 Vector  131  Occ=0.000000D+00  E= 1.903157D+00

 Vector  132  Occ=0.000000D+00  E= 1.946427D+00

 Vector  133  Occ=0.000000D+00  E= 1.960089D+00

 Vector  134  Occ=0.000000D+00  E= 2.020325D+00

 Vector  135  Occ=0.000000D+00  E= 2.050882D+00

 Vector  136  Occ=0.000000D+00  E= 2.061039D+00

 Vector  137  Occ=0.000000D+00  E= 2.068052D+00

 Vector  138  Occ=0.000000D+00  E= 2.096605D+00

 Vector  139  Occ=0.000000D+00  E= 2.133176D+00

 Vector  140  Occ=0.000000D+00  E= 2.171691D+00

 Vector  141  Occ=0.000000D+00  E= 2.207329D+00

 Vector  142  Occ=0.000000D+00  E= 2.275234D+00

 Vector  143  Occ=0.000000D+00  E= 2.305041D+00

 Vector  144  Occ=0.000000D+00  E= 2.373342D+00

 Vector  145  Occ=0.000000D+00  E= 2.397663D+00

 Vector  146  Occ=0.000000D+00  E= 2.422484D+00

 Vector  147  Occ=0.000000D+00  E= 2.455304D+00

 Vector  148  Occ=0.000000D+00  E= 2.476229D+00

 Vector  149  Occ=0.000000D+00  E= 2.557049D+00

 Vector  150  Occ=0.000000D+00  E= 2.679649D+00

 Vector  151  Occ=0.000000D+00  E= 2.691513D+00

 Vector  152  Occ=0.000000D+00  E= 2.712992D+00

 Vector  153  Occ=0.000000D+00  E= 2.767105D+00

 Vector  154  Occ=0.000000D+00  E= 2.835822D+00

 Vector  155  Occ=0.000000D+00  E= 2.895397D+00

 Vector  156  Occ=0.000000D+00  E= 2.934995D+00

 Vector  157  Occ=0.000000D+00  E= 3.073374D+00

 Vector  158  Occ=0.000000D+00  E= 3.189324D+00

 Vector  159  Occ=0.000000D+00  E= 3.313184D+00

 Vector  160  Occ=0.000000D+00  E= 3.484352D+00

 Vector  161  Occ=0.000000D+00  E= 3.593162D+00

 Vector  162  Occ=0.000000D+00  E= 4.189664D+00

 Vector  163  Occ=0.000000D+00  E= 5.912833D+00

     Multipole analysis of the density
     ---------------------------------

     L   x y z        total         alpha         beta         nuclear
     -   - - -        -----         -----         ----         -------
     0   0 0 0     -0.000000    -39.000000    -39.000000     78.000000

     1   1 0 0      0.902521      4.661496      4.661496     -8.420472
     1   0 1 0      0.173769      0.783634      0.783634     -1.393499
     1   0 0 1      0.288795     -1.622236     -1.622236      3.533267

     2   2 0 0    -43.111381   -288.785289   -288.785289    534.459197
     2   1 1 0      0.035735     20.325947     20.325947    -40.616159
     2   1 0 1      0.222171      9.017029      9.017029    -17.811887
     2   0 2 0    -48.415075   -430.256284   -430.256284    812.097493
     2   0 1 1      0.740834    -13.222837    -13.222837     27.186507

 Zero-Point correction to Energy  =   65.633 kcal/mol  (  0.104593 au)
 Thermal correction to Energy     =   71.799 kcal/mol  (  0.114420 au)
 Thermal correction to Enthalpy   =   72.392 kcal/mol  (  0.115363 au)
 Total Entropy                    =   99.401 cal/mol-K
   - Translational                =   40.888 cal/mol-K (mol. weight = 148.9969)
   - Rotational                   =   29.955 cal/mol-K (symmetry #  =        1)
   - Vibrational                  =   28.558 cal/mol-K
   - Translational                  =    2.979 cal/mol-K
   - Rotational                     =    2.979 cal/mol-K
   - Vibrational                    =   28.209 cal/mol-K
 P.Frequency       -0.00       -0.00       -0.00        0.00        0.00        0.00
 P.Frequency       29.57       72.01      126.13      164.24      190.67      233.79
 P.Frequency      259.78      294.52      333.89      359.30      528.75      549.41
 P.Frequency      634.08      680.07      706.90      733.79      809.71      856.36
 P.Frequency      889.28      950.98      987.74      994.00     1024.17     1138.88
 P.Frequency     1186.08     1209.99     1285.03     1350.28     1415.37     1436.17
 P.Frequency     1697.26     1707.31     2590.81     2659.70     3073.37     3145.46
 P.Frequency     3157.67     3206.57     3263.69

 Normal Eigenvalue ||           Projected Infra Red Intensities
  Mode   [cm**-1]  || [atomic units] [(debye/angs)**2] [(KM/mol)] [arbitrary]
 ------ ---------- || -------------- ----------------- ---------- -----------
    1       -0.000 ||    0.000262           0.006         0.256       0.124
    2       -0.000 ||    0.000237           0.005         0.231       0.113
    3       -0.000 ||    0.000009           0.000         0.009       0.004
    4        0.000 ||    0.000091           0.002         0.088       0.043
    5        0.000 ||    0.000533           0.012         0.520       0.253
    6        0.000 ||    0.000085           0.002         0.083       0.040
    7       29.566 ||    0.001793           0.041         1.747       0.850
    8       72.012 ||    0.002491           0.057         2.429       1.182
    9      126.134 ||    0.000619           0.014         0.604       0.294
   10      164.239 ||    0.003925           0.091         3.827       1.862
   11      190.667 ||    0.005560           0.128         5.420       2.637
   12      233.786 ||    0.012421           0.287        12.109       5.891
   13      259.782 ||    0.013596           0.314        13.254       6.449
   14      294.519 ||    0.021112           0.487        20.581      10.013
   15      333.887 ||    0.004455           0.103         4.343       2.113
   16      359.297 ||    0.004318           0.100         4.210       2.048
   17      528.750 ||    0.007134           0.165         6.955       3.384
   18      549.409 ||    0.002961           0.068         2.887       1.404
   19      634.077 ||    0.006350           0.146         6.190       3.012
   20      680.071 ||    0.005339           0.123         5.205       2.532
   21      706.899 ||    0.005569           0.128         5.429       2.641
   22      733.785 ||    0.012441           0.287        12.128       5.901
   23      809.708 ||    0.002426           0.056         2.365       1.150
   24      856.355 ||    0.024556           0.567        23.939      11.647
   25      889.278 ||    0.037106           0.856        36.173      17.599
   26      950.984 ||    0.050218           1.159        48.955      23.819
   27      987.745 ||    0.024614           0.568        23.995      11.674
   28      993.998 ||    0.002790           0.064         2.720       1.323
   29     1024.166 ||    0.022734           0.524        22.162      10.783
   30     1138.877 ||    0.030022           0.693        29.267      14.239
   31     1186.077 ||    0.193338           4.460       188.476      91.701
   32     1209.990 ||    0.127989           2.953       124.770      60.705
   33     1285.029 ||    0.032795           0.757        31.971      15.555
   34     1350.280 ||    0.037553           0.866        36.608      17.811
   35     1415.367 ||    0.001956           0.045         1.907       0.928
   36     1436.170 ||    0.009280           0.214         9.046       4.401
   37     1697.261 ||    0.151148           3.487       147.347      71.690
   38     1707.312 ||    0.053415           1.232        52.071      25.335
   39     2590.807 ||    0.009711           0.224         9.467       4.606
   40     2659.701 ||    0.000645           0.015         0.629       0.306
   41     3073.373 ||    0.008789           0.203         8.568       4.169
   42     3145.460 ||    0.000753           0.017         0.734       0.357
   43     3157.675 ||    0.001582           0.036         1.542       0.750
   44     3206.568 ||    0.012174           0.281        11.868       5.774
   45     3263.691 ||    0.001868           0.043         1.821       0.886
 ----------------------------------------------------------------------------

 Total times  cpu:     1064.7s     wall:     1064.7s
