         Total DFT energy =    -1065.768727819916
@ Step       Energy      Delta E   Gmax     Grms     Xrms     Xmax   Walltime
@ ---- ---------------- -------- -------- -------- -------- -------- --------
@    0   -1065.76872782  0.0D+00  0.02224  0.00540  0.00000  0.00000     25.0
         Total DFT energy =    -1065.775003573048
         Total DFT energy =    -1065.775316472112
@    1   -1065.77531647 -6.6D-03  0.01333  0.00225  0.07238  0.20868     56.1
         Total DFT energy =    -1065.776622261802
         Total DFT energy =    -1065.776812666479
@    2   -1065.77681267 -1.5D-03  0.01749  0.00234  0.03724  0.10563     86.1
         Total DFT energy =    -1065.777392155497
         Total DFT energy =    -1065.777428974153
@    3   -1065.77742897 -6.2D-04  0.00616  0.00111  0.02405  0.07820    115.0
         Total DFT energy =    -1065.777698049190
         Total DFT energy =    -1065.777810971802
@    4   -1065.77781097 -3.8D-04  0.00390  0.00069  0.03223  0.08295    143.1
         Total DFT energy =    -1065.777918795104
         Total DFT energy =    -1065.777943476596
@    5   -1065.77794348 -1.3D-04  0.00277  0.00044  0.02090  0.05695    171.0
         Total DFT energy =    -1065.777997076379
         Total DFT energy =    -1065.778027056107
@    6   -1065.77802706 -8.4D-05  0.00180  0.00030  0.01782  0.04560    199.2
         Total DFT energy =    -1065.778056557473
         Total DFT energy =    -1065.778074983459
@    7   -1065.77807498 -4.8D-05  0.00103  0.00020  0.01729  0.03706    226.2
         Total DFT energy =    -1065.778094680723
         Total DFT energy =    -1065.778115101079
@    8   -1065.77811510 -4.0D-05  0.00066  0.00017  0.02238  0.06385    252.0
         Total DFT energy =    -1065.778128686791
         Total DFT energy =    -1065.778134597654
@    9   -1065.77813460 -1.9D-05  0.00034  0.00010  0.01397  0.04762    276.0
         Total DFT energy =    -1065.778141333664
         Total DFT energy =    -1065.778144558542
@   10   -1065.77814456 -1.0D-05  0.00051  0.00014  0.00695  0.02472    301.9
         Total DFT energy =    -1065.778151797125
         Total DFT energy =    -1065.778158899533
@   11   -1065.77815890 -1.4D-05  0.00061  0.00012  0.00784  0.02648    325.8
         Total DFT energy =    -1065.778170444809
         Total DFT energy =    -1065.778185111375
@   12   -1065.77818511 -2.6D-05  0.00041  0.00011  0.03126  0.11189    353.6
         Total DFT energy =    -1065.778194076629
         Total DFT energy =    -1065.778201286818
@   13   -1065.77820129 -1.6D-05  0.00012  0.00005  0.01086  0.03639    379.5
         Total DFT energy =    -1065.778202606555
         Total DFT energy =  -1065.778202606555
@   14   -1065.77820261 -1.3D-06  0.00005  0.00002  0.00383  0.01227    396.1
         Total DFT energy =    -1065.778202973338
         Total DFT energy =  -1065.778202973338
@   15   -1065.77820297 -3.7D-07  0.00004  0.00001  0.00050  0.00202    411.8
         Total DFT energy =    -1065.778202448059
         Total DFT energy =  -1065.778202448059
@   16   -1065.77820245  5.3D-07  0.00009  0.00001  0.00161  0.00551    428.3
         Total DFT energy =    -1065.778203079144
         Total DFT energy =  -1065.778203079144
@   17   -1065.77820308 -6.3D-07  0.00013  0.00002  0.00074  0.00249    443.8
         Total DFT energy =    -1065.778202704551
         Total DFT energy =  -1065.778202704551
@   18   -1065.77820270  3.7D-07  0.00017  0.00002  0.00027  0.00079    459.5
@   18   -1065.77820270  3.7D-07  0.00017  0.00002  0.00027  0.00079    459.5

 Output coordinates in angstroms (scale by  1.889725989 to convert to a.u.)

  No.       Tag          Charge          X              Y              Z
 ---- ---------------- ---------- -------------- -------------- --------------
    1 C                    6.0000     0.04997199    -3.26937950     0.22430777
    2 C                    6.0000     0.13733998    -2.07703539    -0.36801192
    3 C                    6.0000    -0.07921164    -0.77378512     0.34350866
    4 C                    6.0000    -1.14108418     1.71025190     0.36667598
    5 C                    6.0000     1.11486927     0.19156801     0.13820696
    6 H                    1.0000     0.21299976    -4.19211995    -0.33609890
    7 H                    1.0000    -0.18312247    -3.36668839     1.28850691
    8 H                    1.0000     0.37215215    -2.00288108    -1.43404358
    9 H                    1.0000    -0.15652564    -0.94433108     1.43195415
   10 H                    1.0000    -1.66786323     2.46065517    -0.23827296
   11 H                    1.0000    -1.41403687     1.83302650     1.42520830
   12 O                    8.0000     2.24856867    -0.17756697    -0.00531453
   13 S                   16.0000    -1.61847902     0.04922525    -0.25099498
   14 S                   16.0000     0.66498997     1.94684194     0.15901771

         Total DFT energy =    -1065.778201730632

                       DFT Final Molecular Orbital Analysis
                       ------------------------------------

 Vector    1  Occ=2.000000D+00  E=-8.891084D+01

 Vector   79  Occ=0.000000D+00  E= 6.514551D-01

 Vector   80  Occ=0.000000D+00  E= 6.622923D-01

 Vector   81  Occ=0.000000D+00  E= 6.733761D-01

 Vector   82  Occ=0.000000D+00  E= 6.897648D-01

 Vector   83  Occ=0.000000D+00  E= 7.039330D-01

 Vector   84  Occ=0.000000D+00  E= 7.423514D-01

 Vector   85  Occ=0.000000D+00  E= 7.557780D-01

 Vector   86  Occ=0.000000D+00  E= 7.879422D-01

 Vector   87  Occ=0.000000D+00  E= 8.566961D-01

 Vector   88  Occ=0.000000D+00  E= 8.659008D-01

 Vector   89  Occ=0.000000D+00  E= 8.923087D-01

 Vector   90  Occ=0.000000D+00  E= 8.978242D-01

 Vector   91  Occ=0.000000D+00  E= 9.147253D-01

 Vector   92  Occ=0.000000D+00  E= 9.442533D-01

 Vector   93  Occ=0.000000D+00  E= 9.537107D-01

 Vector   94  Occ=0.000000D+00  E= 9.885443D-01

 Vector   95  Occ=0.000000D+00  E= 9.981071D-01

 Vector   96  Occ=0.000000D+00  E= 1.015203D+00

 Vector   97  Occ=0.000000D+00  E= 1.030860D+00

 Vector   98  Occ=0.000000D+00  E= 1.060828D+00

 Vector   99  Occ=0.000000D+00  E= 1.080847D+00

 Vector  100  Occ=0.000000D+00  E= 1.086340D+00

 Vector  101  Occ=0.000000D+00  E= 1.120206D+00

 Vector  102  Occ=0.000000D+00  E= 1.154439D+00

 Vector  103  Occ=0.000000D+00  E= 1.184670D+00

 Vector  104  Occ=0.000000D+00  E= 1.228244D+00

 Vector  105  Occ=0.000000D+00  E= 1.259745D+00

 Vector  106  Occ=0.000000D+00  E= 1.323590D+00

 Vector  107  Occ=0.000000D+00  E= 1.368424D+00

 Vector  108  Occ=0.000000D+00  E= 1.395309D+00

 Vector  109  Occ=0.000000D+00  E= 1.436690D+00

 Vector  110  Occ=0.000000D+00  E= 1.464701D+00

 Vector  111  Occ=0.000000D+00  E= 1.481551D+00

 Vector  112  Occ=0.000000D+00  E= 1.515202D+00

 Vector  113  Occ=0.000000D+00  E= 1.533487D+00

 Vector  114  Occ=0.000000D+00  E= 1.587816D+00

 Vector  115  Occ=0.000000D+00  E= 1.590657D+00

 Vector  116  Occ=0.000000D+00  E= 1.606258D+00

 Vector  117  Occ=0.000000D+00  E= 1.626276D+00

 Vector  118  Occ=0.000000D+00  E= 1.657390D+00

 Vector  119  Occ=0.000000D+00  E= 1.658753D+00

 Vector  120  Occ=0.000000D+00  E= 1.673604D+00

 Vector  121  Occ=0.000000D+00  E= 1.690612D+00

 Vector  122  Occ=0.000000D+00  E= 1.722987D+00

 Vector  123  Occ=0.000000D+00  E= 1.753906D+00

 Vector  124  Occ=0.000000D+00  E= 1.771041D+00

 Vector  125  Occ=0.000000D+00  E= 1.801134D+00

 Vector  126  Occ=0.000000D+00  E= 1.831052D+00

 Vector  127  Occ=0.000000D+00  E= 1.845565D+00

 Vector  128  Occ=0.000000D+00  E= 1.860550D+00

 Vector  129  Occ=0.000000D+00  E= 1.870431D+00

 Vector  130  Occ=0.000000D+00  E= 1.884197D+00

 Vector  131  Occ=0.000000D+00  E= 1.935428D+00

 Vector  132  Occ=0.000000D+00  E= 2.000503D+00

 Vector  133  Occ=0.000000D+00  E= 2.050335D+00

 Vector  134  Occ=0.000000D+00  E= 2.101553D+00

 Vector  135  Occ=0.000000D+00  E= 2.115102D+00

 Vector  136  Occ=0.000000D+00  E= 2.152627D+00

 Vector  137  Occ=0.000000D+00  E= 2.201114D+00

 Vector  138  Occ=0.000000D+00  E= 2.228879D+00

 Vector  139  Occ=0.000000D+00  E= 2.304867D+00

 Vector  140  Occ=0.000000D+00  E= 2.351070D+00

 Vector  141  Occ=0.000000D+00  E= 2.377036D+00

 Vector  142  Occ=0.000000D+00  E= 2.400877D+00

 Vector  143  Occ=0.000000D+00  E= 2.429038D+00

 Vector  144  Occ=0.000000D+00  E= 2.462938D+00

 Vector  145  Occ=0.000000D+00  E= 2.486450D+00

 Vector  146  Occ=0.000000D+00  E= 2.624600D+00

 Vector  147  Occ=0.000000D+00  E= 2.659387D+00

 Vector  148  Occ=0.000000D+00  E= 2.665701D+00

 Vector  149  Occ=0.000000D+00  E= 2.736793D+00

 Vector  150  Occ=0.000000D+00  E= 2.789844D+00

 Vector  151  Occ=0.000000D+00  E= 2.929129D+00

 Vector  152  Occ=0.000000D+00  E= 3.061961D+00

 Vector  153  Occ=0.000000D+00  E= 3.089426D+00

 Vector  154  Occ=0.000000D+00  E= 3.187906D+00

 Vector  155  Occ=0.000000D+00  E= 3.236839D+00

 Vector  156  Occ=0.000000D+00  E= 3.445462D+00

 Vector  157  Occ=0.000000D+00  E= 3.508517D+00

 Vector  158  Occ=0.000000D+00  E= 5.872848D+00

     Multipole analysis of the density
     ---------------------------------

     L   x y z        total         alpha         beta         nuclear
     -   - - -        -----         -----         ----         -------
     0   0 0 0     -0.000000    -38.000000    -38.000000     76.000000

     1   1 0 0     -0.871245     -0.801890     -0.801890      0.732535
     1   0 1 0     -0.020807      0.940205      0.940205     -1.901216
     1   0 0 1      0.394372     -4.386558     -4.386558      9.167488

     2   2 0 0    -51.265402   -221.852822   -221.852822    392.440241
     2   1 1 0     -2.522705      6.017646      6.017646    -14.557998
     2   1 0 1     -0.793029     -6.516491     -6.516491     12.239952
     2   0 2 0    -40.781473   -405.245410   -405.245410    769.709347
     2   0 1 1      0.244392    -13.971221    -13.971221     28.186835

 Zero-Point correction to Energy  =   62.348 kcal/mol  (  0.099357 au)
 Thermal correction to Energy     =   67.614 kcal/mol  (  0.107750 au)
 Thermal correction to Enthalpy   =   68.207 kcal/mol  (  0.108694 au)
 Total Entropy                    =   91.762 cal/mol-K
   - Translational                =   40.827 cal/mol-K (mol. weight = 145.9860)
   - Rotational                   =   29.311 cal/mol-K (symmetry #  =        1)
   - Vibrational                  =   21.624 cal/mol-K
   - Translational                  =    2.979 cal/mol-K
   - Rotational                     =    2.979 cal/mol-K
   - Vibrational                    =   24.070 cal/mol-K
 P.Frequency       -0.00       -0.00        0.00        0.00        0.00        0.00
 P.Frequency       59.15       73.71      138.93      228.41      272.30      339.34
 P.Frequency      390.70      406.21      464.55      553.89      602.45      686.96
 P.Frequency      723.61      749.24      830.35      861.33      927.43      958.40
 P.Frequency     1005.43     1016.07     1088.53     1144.38     1174.90     1202.39
 P.Frequency     1256.35     1314.64     1433.22     1435.17     1713.92     1805.68
 P.Frequency     3028.68     3062.40     3134.76     3140.67     3169.99     3239.54

 Normal Eigenvalue ||           Projected Infra Red Intensities
  Mode   [cm**-1]  || [atomic units] [(debye/angs)**2] [(KM/mol)] [arbitrary]
 ------ ---------- || -------------- ----------------- ---------- -----------
    1       -0.000 ||    0.000218           0.005         0.213       0.150
    2       -0.000 ||    0.000198           0.005         0.193       0.137
    3        0.000 ||    0.000189           0.004         0.185       0.131
    4        0.000 ||    0.000024           0.001         0.024       0.017
    5        0.000 ||    0.000137           0.003         0.134       0.095
    6        0.000 ||    0.000815           0.019         0.794       0.561
    7       59.147 ||    0.001934           0.045         1.885       1.332
    8       73.713 ||    0.000294           0.007         0.287       0.203
    9      138.935 ||    0.001522           0.035         1.484       1.048
   10      228.409 ||    0.003701           0.085         3.608       2.549
   11      272.302 ||    0.001761           0.041         1.717       1.213
   12      339.337 ||    0.005119           0.118         4.991       3.526
   13      390.700 ||    0.004544           0.105         4.430       3.130
   14      406.207 ||    0.001851           0.043         1.805       1.275
   15      464.550 ||    0.000436           0.010         0.425       0.300
   16      553.887 ||    0.009209           0.212         8.978       6.344
   17      602.446 ||    0.008461           0.195         8.248       5.828
   18      686.956 ||    0.000867           0.020         0.845       0.597
   19      723.609 ||    0.005768           0.133         5.623       3.973
   20      749.242 ||    0.020091           0.464        19.586      13.839
   21      830.346 ||    0.017209           0.397        16.776      11.854
   22      861.329 ||    0.016100           0.371        15.696      11.090
   23      927.428 ||    0.042453           0.979        41.386      29.243
   24      958.404 ||    0.028199           0.651        27.490      19.424
   25     1005.426 ||    0.037872           0.874        36.919      26.087
   26     1016.068 ||    0.009057           0.209         8.829       6.239
   27     1088.535 ||    0.001780           0.041         1.735       1.226
   28     1144.384 ||    0.005739           0.132         5.594       3.953
   29     1174.904 ||    0.018026           0.416        17.572      12.416
   30     1202.393 ||    0.015908           0.367        15.508      10.958
   31     1256.355 ||    0.001319           0.030         1.286       0.909
   32     1314.637 ||    0.002522           0.058         2.458       1.737
   33     1433.218 ||    0.004111           0.095         4.008       2.832
   34     1435.165 ||    0.000483           0.011         0.471       0.333
   35     1713.915 ||    0.003266           0.075         3.184       2.250
   36     1805.676 ||    0.295888           6.826       288.446     203.813
   37     3028.681 ||    0.008220           0.190         8.013       5.662
   38     3062.399 ||    0.016373           0.378        15.961      11.278
   39     3134.763 ||    0.000933           0.022         0.909       0.642
   40     3140.671 ||    0.005325           0.123         5.191       3.668
   41     3169.988 ||    0.002307           0.053         2.249       1.589
   42     3239.543 ||    0.009509           0.219         9.270       6.550
 ----------------------------------------------------------------------------

 Total times  cpu:      886.1s     wall:      886.1s
