         Total DFT energy =    -1556.666630333734
@ Step       Energy      Delta E   Gmax     Grms     Xrms     Xmax   Walltime
@ ---- ---------------- -------- -------- -------- -------- -------- --------
@    0   -1556.66663033  0.0D+00  0.04050  0.01506  0.00000  0.00000     10.0
         Total DFT energy =    -1556.673369203832
         Total DFT energy =  -1556.673369203832
@    1   -1556.67336920 -6.7D-03  0.01046  0.00420  0.09753  0.22361     18.2
         Total DFT energy =    -1556.673883802454
         Total DFT energy =    -1556.673896805747
@    2   -1556.67389681 -5.3D-04  0.00304  0.00104  0.01865  0.03917     28.7
         Total DFT energy =    -1556.673951486003
         Total DFT energy =    -1556.673954273891
@    3   -1556.67395427 -5.7D-05  0.00132  0.00056  0.00894  0.01545     39.2
         Total DFT energy =    -1556.673968583918
         Total DFT energy =    -1556.673971423997
@    4   -1556.67397142 -1.7D-05  0.00063  0.00023  0.00721  0.01453     49.8
         Total DFT energy =    -1556.673974815981
         Total DFT energy =  -1556.673974815981
@    5   -1556.67397482 -3.4D-06  0.00022  0.00011  0.00208  0.00414     56.8
         Total DFT energy =    -1556.673976052018
         Total DFT energy =  -1556.673976052018
@    6   -1556.67397605 -1.2D-06  0.00013  0.00004  0.00196  0.00436     63.8
         Total DFT energy =    -1556.673976335729
         Total DFT energy =  -1556.673976335729
@    7   -1556.67397634 -2.8D-07  0.00005  0.00002  0.00047  0.00102     70.7
@    7   -1556.67397634 -2.8D-07  0.00005  0.00002  0.00047  0.00102     70.7

 Output coordinates in angstroms (scale by  1.889725989 to convert to a.u.)

  No.       Tag          Charge          X              Y              Z
 ---- ---------------- ---------- -------------- -------------- --------------
    1 C                    6.0000     0.04368222     0.52164933     0.00275687
    2 C                    6.0000    -0.49252322    -0.70892539     0.01110773
    3 F                    9.0000    -1.81041005    -0.88909996     0.02090105
    4 Cl                  17.0000     1.75107806     0.80733989    -0.00958311
    5 Cl                  17.0000    -0.98555174     1.92196090     0.00525961
    6 Cl                  17.0000     0.40110427    -2.18315680     0.00963702

         Total DFT energy =    -1556.673978455242

                       DFT Final Molecular Orbital Analysis
                       ------------------------------------

 Vector    1  Occ=2.000000D+00  E=-1.015959D+02

 Vector   23  Occ=2.000000D+00  E=-7.544164D-01

 Vector   24  Occ=2.000000D+00  E=-6.185588D-01

 Vector   25  Occ=2.000000D+00  E=-5.453354D-01

 Vector   26  Occ=2.000000D+00  E=-5.363337D-01

 Vector   27  Occ=2.000000D+00  E=-5.140804D-01

 Vector   28  Occ=2.000000D+00  E=-4.643841D-01

 Vector   29  Occ=2.000000D+00  E=-4.300194D-01

 Vector   30  Occ=2.000000D+00  E=-4.179596D-01

 Vector   31  Occ=2.000000D+00  E=-3.712211D-01

 Vector   32  Occ=2.000000D+00  E=-3.641041D-01

 Vector   33  Occ=2.000000D+00  E=-3.559153D-01

 Vector   34  Occ=2.000000D+00  E=-3.456145D-01

 Vector   35  Occ=2.000000D+00  E=-3.261287D-01

 Vector   36  Occ=2.000000D+00  E=-2.594782D-01

 Vector   37  Occ=0.000000D+00  E=-2.592103D-02

 Vector   38  Occ=0.000000D+00  E=-1.669040D-02

 Vector   39  Occ=0.000000D+00  E=-6.025405D-03

 Vector   40  Occ=0.000000D+00  E= 4.482682D-02

 Vector   41  Occ=0.000000D+00  E= 1.870401D-01

 Vector   42  Occ=0.000000D+00  E= 2.729968D-01

 Vector   43  Occ=0.000000D+00  E= 3.628749D-01

 Vector   44  Occ=0.000000D+00  E= 4.012795D-01

 Vector   45  Occ=0.000000D+00  E= 4.208995D-01

 Vector   46  Occ=0.000000D+00  E= 4.274078D-01

 Vector   47  Occ=0.000000D+00  E= 4.383054D-01

 Vector   48  Occ=0.000000D+00  E= 4.564880D-01

 Vector   49  Occ=0.000000D+00  E= 4.632085D-01

 Vector   50  Occ=0.000000D+00  E= 4.750215D-01

 Vector   51  Occ=0.000000D+00  E= 4.970162D-01

 Vector   52  Occ=0.000000D+00  E= 5.215525D-01

 Vector   53  Occ=0.000000D+00  E= 5.254061D-01

 Vector   54  Occ=0.000000D+00  E= 5.255174D-01

 Vector   55  Occ=0.000000D+00  E= 5.359388D-01

 Vector   56  Occ=0.000000D+00  E= 5.503055D-01

 Vector   57  Occ=0.000000D+00  E= 5.703958D-01

 Vector   58  Occ=0.000000D+00  E= 5.938188D-01

 Vector   59  Occ=0.000000D+00  E= 6.457918D-01

 Vector   60  Occ=0.000000D+00  E= 6.621669D-01

 Vector   61  Occ=0.000000D+00  E= 6.669173D-01

 Vector   62  Occ=0.000000D+00  E= 6.820994D-01

 Vector   63  Occ=0.000000D+00  E= 6.945509D-01

 Vector   64  Occ=0.000000D+00  E= 7.121990D-01

 Vector   65  Occ=0.000000D+00  E= 7.282905D-01

 Vector   66  Occ=0.000000D+00  E= 7.348505D-01

 Vector   67  Occ=0.000000D+00  E= 7.730818D-01

 Vector   68  Occ=0.000000D+00  E= 7.922235D-01

 Vector   69  Occ=0.000000D+00  E= 8.282089D-01

 Vector   70  Occ=0.000000D+00  E= 8.583728D-01

 Vector   71  Occ=0.000000D+00  E= 8.906695D-01

 Vector   72  Occ=0.000000D+00  E= 9.717313D-01

 Vector   73  Occ=0.000000D+00  E= 1.011465D+00

 Vector   74  Occ=0.000000D+00  E= 1.043963D+00

 Vector   75  Occ=0.000000D+00  E= 1.100170D+00

 Vector   76  Occ=0.000000D+00  E= 1.112537D+00

 Vector   77  Occ=0.000000D+00  E= 1.135023D+00

 Vector   78  Occ=0.000000D+00  E= 1.194277D+00

 Vector   79  Occ=0.000000D+00  E= 1.246676D+00

 Vector   80  Occ=0.000000D+00  E= 1.265166D+00

 Vector   81  Occ=0.000000D+00  E= 1.305660D+00

 Vector   82  Occ=0.000000D+00  E= 1.458198D+00

 Vector   83  Occ=0.000000D+00  E= 1.501940D+00

 Vector   84  Occ=0.000000D+00  E= 1.530434D+00

 Vector   85  Occ=0.000000D+00  E= 1.631622D+00

 Vector   86  Occ=0.000000D+00  E= 1.691824D+00

 Vector   87  Occ=0.000000D+00  E= 1.719911D+00

 Vector   88  Occ=0.000000D+00  E= 1.897200D+00

 Vector   89  Occ=0.000000D+00  E= 1.983764D+00

 Vector   90  Occ=0.000000D+00  E= 2.148066D+00

 Vector   91  Occ=0.000000D+00  E= 2.316600D+00

 Vector   92  Occ=0.000000D+00  E= 2.444223D+00

 Vector   93  Occ=0.000000D+00  E= 2.754047D+00

 Vector   94  Occ=0.000000D+00  E= 2.884318D+00

 Vector   95  Occ=0.000000D+00  E= 2.969132D+00

 Vector   96  Occ=0.000000D+00  E= 3.144152D+00

 Vector   97  Occ=0.000000D+00  E= 3.527266D+00

 Vector   98  Occ=0.000000D+00  E= 3.556070D+00

 Vector   99  Occ=0.000000D+00  E= 3.726168D+00

 Vector  100  Occ=0.000000D+00  E= 3.851774D+00

 Vector  101  Occ=0.000000D+00  E= 4.148898D+00

 Vector  102  Occ=0.000000D+00  E= 7.754934D+00

     Multipole analysis of the density
     ---------------------------------

     L   x y z        total         alpha         beta         nuclear
     -   - - -        -----         -----         ----         -------
     0   0 0 0     -0.000000    -36.000000    -36.000000     72.000000

     1   1 0 0      0.132861     -0.732908     -0.732908      1.598677
     1   0 1 0     -0.099526     -0.199894     -0.199894      0.300262
     1   0 0 1     -0.000516     -0.341946     -0.341946      0.683376

     2   2 0 0    -39.021606   -202.240728   -202.240728    365.459849
     2   1 1 0     -0.783468     10.921649     10.921649    -22.626766
     2   1 0 1      0.001333      1.215435      1.215435     -2.429536
     2   0 2 0    -38.377382   -316.774467   -316.774467    595.171552
     2   0 1 1      0.001259      0.934835      0.934835     -1.868412

 Zero-Point correction to Energy  =   10.553 kcal/mol  (  0.016818 au)
 Thermal correction to Energy     =   14.450 kcal/mol  (  0.023028 au)
 Thermal correction to Enthalpy   =   15.042 kcal/mol  (  0.023972 au)
 Total Entropy                    =   82.007 cal/mol-K
   - Translational                =   40.866 cal/mol-K (mol. weight = 147.9050)
   - Rotational                   =   28.983 cal/mol-K (symmetry #  =        1)
   - Vibrational                  =   12.158 cal/mol-K
   - Translational                  =    2.979 cal/mol-K
   - Rotational                     =    2.979 cal/mol-K
   - Vibrational                    =   13.836 cal/mol-K
 P.Frequency       -0.00       -0.00       -0.00        0.00        0.00        0.00
 P.Frequency      119.15      170.92      251.62      313.76      361.20      402.78
 P.Frequency      517.75      551.23      836.16      964.40     1188.89     1707.86

 Normal Eigenvalue ||           Projected Infra Red Intensities
  Mode   [cm**-1]  || [atomic units] [(debye/angs)**2] [(KM/mol)] [arbitrary]
 ------ ---------- || -------------- ----------------- ---------- -----------
    1       -0.000 ||    0.000001           0.000         0.001       0.001
    2       -0.000 ||    0.000011           0.000         0.010       0.004
    3       -0.000 ||    0.000010           0.000         0.010       0.004
    4        0.000 ||    0.000011           0.000         0.010       0.004
    5        0.000 ||    0.000009           0.000         0.009       0.004
    6        0.000 ||    0.000002           0.000         0.002       0.001
    7      119.151 ||    0.000059           0.001         0.058       0.024
    8      170.924 ||    0.001304           0.030         1.271       0.520
    9      251.615 ||    0.000325           0.008         0.317       0.130
   10      313.762 ||    0.000093           0.002         0.091       0.037
   11      361.205 ||    0.000229           0.005         0.223       0.091
   12      402.782 ||    0.000865           0.020         0.844       0.345
   13      517.751 ||    0.000131           0.003         0.128       0.052
   14      551.228 ||    0.001850           0.043         1.803       0.737
   15      836.155 ||    0.152047           3.508       148.223      60.622
   16      964.402 ||    0.128132           2.956       124.909      51.087
   17     1188.888 ||    0.126926           2.928       123.733      50.606
   18     1707.864 ||    0.039458           0.910        38.466      15.732
 ----------------------------------------------------------------------------

 Total times  cpu:      158.7s     wall:      158.7s
